5620
 energy: -8141.004165391303 gnorm: 0.000358324914 xtb: 6.7.0 (08769fc)
C            0.19718613556279        1.56466468545174        1.83462051457236
C            1.66438644570948        3.01552164845331        3.02238541750657
C            2.51262188735149        1.91969713765500        3.32945991369557
C            3.65580819057041        2.50857694825534        4.01381573418108
N            3.54179511474847        3.85039545761072        4.07560745200403
C            2.37839382119474        4.19410728633136        3.48338724899824
C            2.68624822274654        6.47089733419862        3.29627376448333
N            3.88224189841173        6.55874847300873        3.95328378845700
C            4.44965618305181        7.79447963029438        3.83371501085174
N            1.95780585211367        5.40350396315224        3.14073641284213
C            6.42976054883046        7.50890669096862        5.02433956596157
N            6.43847352276714        6.17765419718555        5.23525016019938
C            7.64790990834285        5.84473163526095        5.73931488649252
N            5.55458004440293        8.23906240335832        4.35180620009216
C            7.47695521285763        3.54314558826180        5.60502607211414
N            6.15382664342136        3.45415253664960        5.26169960858929
C            5.79723598460817        2.19050194048507        4.88170109529540
N            4.68320349462821        1.75734191036988        4.37178362128135
N            8.14375749133146        4.62481903216401        5.89481503494015
C            0.50923720002644        2.85360163461402        2.31123709649356
C            1.07252773508290        0.46949138447345        2.10364717608254
C            2.23133696975985        0.65805202854891        2.88329458237488
C           10.32476980087440        8.51697315955441        6.11344255649275
C            9.78936647567310        7.21981706476990        6.25704588259732
C            8.48084293253351        7.02734411919274        5.90843241687400
C            7.67360440741323        8.10987377618327        5.46740640511501
C            8.13981772086708        9.39124005507750        5.41357069242129
C            9.49682451592225        9.60850519469941        5.71424576218858
C            8.54964492225932       -0.33872540203313        4.47574568394963
C            7.21845406586222        0.09916402074066        4.56820951426307
C            6.98683422229199        1.38269979560919        4.98773165879371
C            8.04723037314623        2.22555628207223        5.43213930465584
C            9.34514055787584        1.77155721822661        5.44928109473713
C            9.61916013043100        0.49531384154448        4.92083451147449
C            1.60753802616963        9.47333818938075        1.24249874468791
C            1.45759516384256        8.21260532652307        1.84609444280250
C            2.45137240414114        7.75196341572311        2.67432034609535
C            3.58000303549461        8.56713950155926        2.97940084496882
C            3.74430026187542        9.80019230412833        2.40416080185966
C            2.77696416016362       10.25492407112018        1.49020115196262
C            8.84983524980061       -1.53679190015978        3.79573902659684
C           10.93776650455761        0.05186153315759        4.68193244550413
C           11.70453455846949        8.75402991337513        6.24276041337659
C           10.08843033459809       10.86986695992781        5.53209836173362
C            2.97875215181758       11.44765977896026        0.76299548188568
C            0.64466142950511        9.98064499989463        0.34129603007034
C           -0.95421022735020        1.35324055148979        1.04835311304999
C            0.77501297710265       -0.78038957714953        1.52119143836172
C            2.07387956609551       11.85648322323404       -0.17644943082070
S            2.27905596740223       13.20819796748725       -1.28870026689329
C            3.94801534533185       13.86362766547293       -0.94370581969327
C            3.92493360986325       14.89076653268272        0.18074851787247
N            5.08343118483764       15.75610707453307        0.11260007335234
C            5.74720144362726       16.22407991055745        1.18418502966588
C            6.81865164146439       17.20584112746052        0.85245915785473
O            5.49117862364351       15.88297586462954        2.33030793834587
C            6.78987772140642       18.46107503320257        1.44396040655363
C            7.77450376612797       19.39105634138775        1.13379262595040
C            8.81275122276056       19.05057013507889        0.24401912150740
C            8.84420351112407       17.76414949853109       -0.32391463133622
C            7.83333554336372       16.85675652281780       -0.02585292966080
C            0.86681251923766       11.13727045934116       -0.34344685412787
S           -0.32711015068472       11.75638121575283       -1.51547219854918
C           -1.40484386948284       12.72196756205190       -0.39886057264588
C           -0.65833576211558       13.93709507120939        0.12616214606593
N           -1.50624595413469       14.92566792014276        0.76785316749249
C           -2.60269748456654       14.68818707263397        1.52757096374275
C           -3.05211105509268       15.84993104636175        2.35355426630711
O           -3.19911122864014       13.62904915715773        1.53903925302891
C           -4.37842867804524       15.89938109811406        2.73575647982027
C           -4.87360122818205       16.91821737059751        3.54751496262514
C           -3.99788798578724       17.91568550043211        4.01962610336457
C           -2.63633494875068       17.83706810171073        3.66233332122494
C           -2.17802474671793       16.82579043930494        2.82960010622314
C           -1.22767902173644        0.12312368343686        0.51366500098685
S           -2.64085557409616       -0.24887576009475       -0.47304266599587
C           -3.69195201670222        1.23273531960971       -0.25485103836564
C           -5.08432681651523        0.90133740158706       -0.78222022287271
N           -6.01707844028488        1.98032202177165       -0.56258576591308
C           -6.96678131130967        1.93107060314466        0.40128654632546
C           -7.90709204488615        3.07830875220680        0.39016548203907
O           -7.04279675786221        0.99364412012545        1.18119382725291
C           -9.26310731768560        2.82232616915489        0.42815405485642
C          -10.19273475697698        3.85360744593442        0.30470961519007
C           -9.74189975892675        5.17780559453735        0.19172248691851
C           -8.35730144693177        5.43851225674750        0.27811572381881
C           -7.44996309155665        4.39091438538861        0.32579957296613
C           -0.32929569650482       -0.94546810097322        0.73834040910215
S           -0.63286932221307       -2.50390961822170       -0.06681194159262
C           -1.82132865811832       -3.20572096691565        1.13765567808736
C           -2.03864351757856       -4.68545037854140        0.83284455195739
N           -3.37902651803006       -5.09561599795296        1.18201793666597
C           -3.68399719716020       -5.96646323979078        2.16081565127372
C           -5.16032754290051       -6.18199245386042        2.28959954998421
O           -2.84936244084220       -6.51901549795637        2.85504185403228
C           -5.74418804463182       -7.28449269814106        1.70621204957285
C           -7.12913332992263       -7.46033843804483        1.73334900610602
C           -7.92776849755333       -6.52566438426623        2.40517632772329
C           -7.31149306011226       -5.42671036419388        3.04023217737818
C           -5.93960962209578       -5.24423279561934        2.95399032908157
C           11.20508809388485       -1.07269799890651        3.94151115665277
S           12.88991576933016       -1.28430867431289        3.42946242751055
C           13.29286475286576       -3.05442377177976        3.69936201859784
C           14.78870108664292       -3.16226292917548        3.93118871972038
N           15.19046078639324       -4.55056978110841        4.00326204223574
C           16.25091687883144       -4.96825104167098        4.71655640124429
C           16.59903148871215       -6.40783271866953        4.58158732654530
O           16.91753054409630       -4.20737322374914        5.40740028654122
C           15.68530465790661       -7.39639803496358        4.27282242958227
C           16.09542478198395       -8.71863208486153        4.09346485911021
C           17.44918070643793       -9.05487922170558        4.24603954252652
C           18.37081417667892       -8.04101098322673        4.58179018605137
C           17.94022873417688       -6.73742578156219        4.74617552156080
C           10.13454408791427       -1.87705738789770        3.46902464298233
S           10.50342327704467       -3.23277988047101        2.39097111890131
C            8.89664379915668       -4.01957252321634        2.03603013448420
C            9.18312947932288       -5.44043380266622        1.55335742965802
N            7.97952107106768       -6.21236043372888        1.33296402420748
C            7.08703239197192       -6.49180305065592        2.31703394435951
C            6.07334909788822       -7.52114682370980        2.00951565761064
O            7.14785249653127       -5.93438062434988        3.40536730464762
C            4.91068534058520       -7.54376036422283        2.75495035524108
C            3.94152235929279       -8.53629071406629        2.57733376386244
C            4.18166432863635       -9.55363038151720        1.63938548516607
C            5.36166521625211       -9.51120901010330        0.86652182931791
C            6.29663892690670       -8.50865513993449        1.04807899951306
C           12.27161390329347        9.95153297792875        5.88788585590163
S           14.03911650253148       10.03820273766241        5.75344575449277
C           14.47100967086927        8.41259418279411        5.03597999578486
C           15.56156525806141        8.64233884865211        3.99074130340968
N           16.24632376835538        7.42408975268640        3.64130615941061
C           17.44738868463756        7.11351882103224        4.18212992379928
C           18.04993248388460        5.83368583652589        3.74590442790643
O           18.01200321441586        7.87587030290274        4.95551712238487
C           17.31425577415968        4.75363280143547        3.29543394634927
C           17.93828006339912        3.56320046364895        2.92606337466086
C           19.33735453284606        3.44205346415085        3.01979558843736
C           20.08212341534064        4.56418140221936        3.44396417335378
C           19.43523339079461        5.73054157031548        3.81198433317936
C           11.44840138302691       11.05594348144634        5.57240861202983
S           11.97555433845869       12.65907305862669        5.03448839459592
C           13.58435255284981       12.98813174018174        5.82984139791592
C           13.80115129043932       14.48913295473621        5.95393496562243
N           15.20599686764505       14.72765243071228        6.18594952953519
C           15.74431935466813       15.61902928906013        7.03775310091817
C           17.22801687823785       15.49784352883972        7.11941519289184
O           15.10382267357895       16.45232405223880        7.65685639452811
C           17.83247734052917       14.25677032691979        7.15737610748093
C           19.21835023919568       14.13810354935863        7.10217857342522
C           20.01318019498891       15.29230529652480        7.03114360844985
C           19.38885318918460       16.55607384563168        7.07673474567646
C           18.00607891064276       16.64747027617696        7.10711465716159
O            9.87509406069004       17.48912715686243       -1.16884418847214
C           12.75486432697713       14.77804233188056       -4.04657261511761
C           11.45505205099650       14.81776437344572       -3.25308770682875
C           11.26178770353729       16.16541970540600       -2.56407539710220
C            9.96631969242030       16.20796752207496       -1.76128509873226
O            9.68185040856572       20.04591808806285       -0.10314134027496
C           13.41613592750272       19.83515547358463        3.15530306049376
C           12.98176704121762       19.64913941108712        1.70716841159061
C           11.51673974606034       20.02512618376745        1.50757102817032
C           11.07402265651818       19.82148372558832        0.05828648466695
O            7.82869148149845       20.64682103190961        1.63436491793821
C            6.34520198701137       24.59887816132232        4.10363071313612
C            6.03127081322772       23.15354618986277        3.73863357049110
C            7.04065532687658       22.59035119738201        2.74292386120026
C            6.74393430089863       21.13334494142725        2.40256147300602
O           -1.79349121882679       18.77500711307630        4.21185818252603
C            2.22298675020800       21.56328236236777        4.52640721243250
C            1.61821752915937       20.27653221181168        3.97945535143517
C            0.12370765427142       20.18237140789717        4.27372276777682
C           -0.46938639942663       18.88460530570444        3.73223872149670
O           -4.51814965362473       18.85902923056969        4.85658595321803
C           -5.55070316198219       23.34987915178837        6.48323847240773
C           -4.47295134031036       22.43581475311971        5.91378627971779
C           -5.03389786596931       21.06730670086598        5.53833020881515
C           -3.95129439497619       20.15282596333005        4.97170218221511
O           -6.19332326844834       16.80761636806860        3.81148966879516
C          -10.78514346972094       17.93169907697457        5.04608686269081
C           -9.35031791544618       18.43692289802568        4.95761080485028
C           -8.40106411563390       17.35271095620550        4.45681533232236
C           -6.96476218918728       17.85816659067458        4.37146310666947
O           -7.99135011136959        6.75197202483771        0.28799841887387
C           -5.11890908070142       10.66339798893931        0.80658139120268
C           -5.13814718816115        9.14595073983600        0.66997640123880
C           -6.56306927395447        8.62420614659364        0.50131120723956
C           -6.62645564497894        7.10323440965771        0.40380159659984
O          -10.67481378061336        6.17117303952070        0.03790988609831
C          -12.87547236277585        9.71123787982157       -2.52514415952179
C          -11.53957258453977        9.13803837387435       -2.06862579449724
C          -11.72432343330919        7.84518243773355       -1.28017686271575
C          -10.39072755676593        7.28418907536270       -0.79455649549106
O          -11.47871738210547        3.43356901972419        0.25455214009556
C          -16.22195810649724        3.47643131365182        1.47070045405697
C          -15.00586655820318        4.32555667377411        1.12087227934848
C          -13.78427351703667        3.46224021864889        0.81947353214683
C          -12.56303542147882        4.31558839290857        0.49143495459854
O           -8.14076948894423       -4.58879184582461        3.71671162731766
C           -9.77038460866454       -0.31051148210639        5.35491329785216
C           -8.51072453958319       -1.11521034517906        5.05890133949005
C           -8.86492872401080       -2.54150357020175        4.64572510252489
C           -7.65274054540150       -3.34446482408776        4.18593430330894
O           -9.28764346243493       -6.72957067954593        2.48566983273506
C          -13.84164803964571       -5.69709822626219        0.98023763995734
C          -12.51249002699413       -5.11928965597346        1.44987654300942
C          -11.46946129947707       -6.21337455435972        1.65841979664005
C          -10.14976126610973       -5.64255598583104        2.16822137509236
O           -7.55522615287867       -8.57208059621868        1.08263015963625
C          -10.47360383124021      -11.49883356867210       -1.52914605315244
C          -10.39673329951157      -10.22928396829356       -0.69050172662526
C           -8.96947403000164       -9.94726705044269       -0.23139298469896
C           -8.89550735227978       -8.69985248259672        0.64200586280072
O           19.66953633412563       -8.42587890875992        4.73334041066597
C           24.47567070114092       -7.84623021610082        5.47232522792175
C           23.12726392237034       -7.14553234711171        5.36262890354994
C           21.99804681709703       -8.14075502849394        5.11044824971366
C           20.64210172996172       -7.44637376455323        5.04583251098021
O           17.82917895487190      -10.37348661579473        4.14719070495808
C           19.99145115566177      -14.18260874745829        1.94866215123877
C           20.06264259200900      -12.68608068759018        2.22542137305383
C           18.85681190006542      -12.20586644375315        3.02772569470831
C           18.91897033889812      -10.70597918983644        3.29536265867391
O           15.08744981467868       -9.57151646482785        3.78429604922860
C           12.80962252202621      -13.28448322780223        1.55397675362092
C           14.15460424103220      -12.71325826644365        1.98461793366229
C           13.99617296017039      -11.35528274595327        2.66273889369661
C           15.34088059840738      -10.79786778149436        3.11755271774536
O            5.49312121940475      -10.50336092697406       -0.06229852478523
C            7.32031695674102      -12.86163035479245       -3.93269433561688
C            7.50680014984393      -11.69166174329881       -2.97496802231842
C            6.35841983409260      -11.59836162861978       -1.97515855092000
C            6.54109714550047      -10.43708785211307       -1.00349999782144
O            3.26335122457323      -10.55100345357629        1.42593335626187
C            1.59738506251987      -15.12144464730810        2.03748264560148
C            2.83673849130785      -14.24039688447521        1.93847529867561
C            2.46664766569393      -12.77157806178757        1.75276263665621
C            3.70388890526430      -11.88639266730495        1.65819323272491
O            2.84728182880311       -8.36965222624717        3.33735146453569
C           -1.73778871065043       -9.07328539938445        4.92476971932778
C           -0.48788428472879       -9.72950865668644        4.35227241741801
C            0.63210932322588       -8.71291127445923        4.14418307710026
C            1.80120826505830       -9.33029716829958        3.38414381402212
O           21.44419717374994        4.43211960417603        3.49950463207484
C           26.08281938244505        5.89519947679573        4.09360012162324
C           24.62041869670082        6.32284959263717        4.08721023723419
C           23.69750945033853        5.16473038078164        3.71745931421516
C           22.22938713178587        5.56891002812297        3.81094670668227
O           19.87013337103490        2.20413032309106        2.78317530990542
C           22.88901833090114       -1.19739720512637        0.99511647902502
C           22.74559567205828        0.26532719664261        1.39649516411676
C           21.32451072954141        0.58548947129856        1.85045329696803
C           21.18790897700728        2.04126263247726        2.28526079682443
O           17.06267293652773        2.60815401969422        2.52620235026088
C           15.20264187013248       -1.32709338831218        0.31727957600758
C           16.47442733506642       -0.66317115677112        0.83093930071012
C           16.18693632965220        0.72693758468925        1.38973850131165
C           17.46197001280335        1.41913460448843        1.86448740178578
O           20.21087391261627       17.64484729677846        7.09000011266817
C           21.35227150775601       22.36337098706160        7.77032830140463
C           20.22827375073780       21.36203872109376        7.53497395436835
C           20.76518639916727       19.93959658556691        7.39747586506555
C           19.63452011334592       18.92865849168855        7.24471129292919
O           21.37671682479022       15.14042521690413        6.98497125346870
C           25.65714918198585       15.32087708886549        4.59820825550257
C           24.34537474885366       16.04210494325552        4.88267671145068
C           23.42469209890275       15.20382010123366        5.76467807013020
C           22.11833717849579       15.93190897439013        6.06511100148249
O           19.67626234362431       12.86359018375625        7.13280276847932
C           21.67847502508578        8.95111461443083        5.04475033315482
C           21.87268521804607       10.43148747352159        5.34331551962916
C           20.70089735434417       10.97915973163750        6.14908692819330
C           20.80405665894673       12.48619304288692        6.36069588181060
H            4.29158570365202        5.75925472070606        4.42801449267154
H            5.55179262384407        4.27152936593284        5.22322563859686
H           -0.12801246357037        3.69528348542962        2.08626467918353
H            2.88863506848903       -0.17131446098786        3.09014373940634
H           10.41230007825117        6.39662735995479        6.57162295627258
H            7.50834959373312       10.20044978570018        5.08416730374231
H            6.40401343873525       -0.51842842840926        4.22401672897851
H           10.15072499224412        2.40778869185065        5.77971712476821
H            0.59292389728167        7.60630831542211        1.62885746242168
H            4.62354760355234       10.38825869505472        2.61620363350132
H            8.01187547985615       -2.12207405847417        3.45195851913802
H           11.76503098489549        0.65425726597294        5.02539208111417
H           12.33023974079956        7.92965270988997        6.55352911246376
H            9.46017462123719       11.70806733341552        5.26993340126049
H            3.88490570333963       12.00028865367374        0.95559759750712
H           -0.27014643956185        9.43239419040527        0.18026611146639
H           -1.59171262013974        2.20364753939946        0.85900028641704
H            1.43554140605662       -1.61590169597585        1.69400579265756
H            4.63448280196975       13.04068773197750       -0.75630547530266
H            4.22842825504937       14.34863917248044       -1.88072279802720
H            3.01129612728716       15.49184007641818        0.08688905885635
H            3.91706429607244       14.41497415884607        1.16295293841684
H            5.31422766900544       16.13599934983412       -0.79313731951957
H            5.99931335855225       18.69690966593279        2.13827195711880
H            7.83477386615911       15.87071446660049       -0.46191265157899
H           -2.25670461979355       13.01466209131535       -1.00933004228456
H           -1.73176449210465       12.07181615459374        0.40803476857563
H            0.10657476911872       13.59705484136615        0.83899253522487
H           -0.16134197579557       14.43274884120810       -0.71307310818651
H           -1.11072352823465       15.85056047043085        0.80865960380069
H           -5.05879089063145       15.13447304574763        2.39967587001305
H           -1.12324616746121       16.76706808754202        2.60985707631756
H           -3.74396597787564        1.46927742838004        0.80744062066522
H           -3.25175854320003        2.06457771915554       -0.80714222435312
H           -5.03331631994680        0.66732088812319       -1.84920095956217
H           -5.47708244209286        0.03248824960001       -0.24661492151114
H           -5.99618839235612        2.77120905864793       -1.18578283252325
H           -9.62870051390652        1.81325710056845        0.51634318341625
H           -6.39119475503412        4.58991782627957        0.36908334487201
H           -1.40378584660241       -3.04320790368202        2.12847519032255
H           -2.75450847200440       -2.65045589579168        1.03238921980616
H           -1.87773911090471       -4.86501943745304       -0.23546455208185
H           -1.34608238641631       -5.30490684896619        1.40433425823266
H           -4.13468917893266       -4.67614615332211        0.66206523728338
H           -5.15054314746071       -8.02448389094830        1.19503422347179
H           -5.46648091486081       -4.40373958417646        3.43480548923364
H           12.72893149215196       -3.39656584925447        4.56385015333975
H           13.00749732233663       -3.61736751262490        2.81072302374935
H           15.31984548199086       -2.66079429265102        3.11298728805202
H           15.07052953638344       -2.67607999163964        4.86559969958486
H           14.74091305281331       -5.19270731242085        3.37040365663849
H           14.62967578313727       -7.19733947932474        4.17910649169503
H           18.62214059104032       -5.94614224499988        5.00759786457918
H            8.31255069103911       -4.07204048264100        2.95212810898229
H            8.36975521898147       -3.43767765779885        1.27920165598408
H            9.75184519652097       -5.41250828360272        0.62222301621555
H            9.79070548004187       -5.94518522301920        2.31544471705367
H            7.80665271236259       -6.56866824982817        0.40933228016591
H            4.73591810804596       -6.78861356169432        3.50361519205744
H            7.20872597004054       -8.51850934044568        0.47256677401573
H           14.84564434084825        7.76210737991981        5.82858042169909
H           13.57228822065895        7.98247058925753        4.59601226092662
H           15.13153492141243        9.09867946152965        3.09564788191553
H           16.31858670243980        9.31601378498406        4.40455820310986
H           15.78748372729591        6.76798999394508        3.03195799340472
H           16.23688280481134        4.75860370141291        3.24762889151012
H           19.98229824238411        6.57857662380142        4.18563182128926
H           13.58582919819237       12.49937571880536        6.80132240166783
H           14.36205024744174       12.56130636574579        5.19561219894255
H           13.48290222059397       14.97832864348148        5.02449716262008
H           13.23089235181281       14.90647040524413        6.78492851526302
H           15.84194022355051       14.12892403212001        5.68129286246297
H           17.26121578351345       13.34485226815214        7.23338461942509
H           17.50468213296323       17.60065058156603        7.10609301677624
H           12.87616784796110       13.81254417607201       -4.53110309988119
H           12.75745738379247       15.54954597561374       -4.81273310314902
H           13.60684143964296       14.94340223291537       -3.39121908960166
H           11.46308639217298       14.02543387451760       -2.50112098757590
H           10.61399304693720       14.62993473038545       -3.92396140741556
H           11.24018575349541       16.96555511373504       -3.30543397659086
H           12.09851782181962       16.35872454087078       -1.89001543770484
H            9.98003758260595       15.42895459582527       -0.98722126312052
H            9.10651898307072       16.03432411499903       -2.42301863028977
H           14.45521999817292       19.54195719350685        3.28541420847415
H           13.31341063737376       20.87532245680406        3.45446898171386
H           12.80257905478445       19.22615657675198        3.81401949003829
H           13.12687445787354       18.60534559900212        1.41805952153526
H           13.60591800084270       20.26295502516033        1.05394681597928
H           11.35459828009850       21.06880269465934        1.78140064929038
H           10.89068621095062       19.41400544110972        2.16102720841103
H           11.35162507809596       18.82139479571456       -0.28527725573348
H           11.55171181590300       20.55895515022326       -0.59188421740427
H            5.60920308160895       24.98248499690384        4.80607510535864
H            7.32814783816124       24.66865729309383        4.56331288151665
H            6.33632875845131       25.22958662704045        3.21773652982797
H            5.02711651648016       23.09598941303354        3.31110028241939
H            6.05018441947541       22.54334447888877        4.64243334955265
H            8.04381605046123       22.64374000178692        3.16725547811576
H            7.03685025630330       23.17807532573942        1.82367757290474
H            5.80911139224392       21.05372317621504        1.83054936572559
H            6.63494361801698       20.54895427373002        3.32783933907115
H            3.29106337460277       21.59409796692326        4.32226772486420
H            1.75731692064008       22.43393851076596        4.06957449867663
H            2.07669030602387       21.62023514518090        5.60224278169988
H            2.12264843826161       19.42382382587152        4.43501508944442
H            1.78188191310678       20.22517115765541        2.90024438407953
H           -0.40499041955458       21.02893007772945        3.83186652501502
H           -0.03764474897524       20.21367671290434        5.35123403745616
H            0.13432007325431       18.03276925929974        4.07952097402832
H           -0.45756438324412       18.89817822100198        2.63395737377038
H           -5.13236775047346       24.31849951749090        6.74769283458621