5860
 energy: -8394.252229692473 gnorm: 0.000842313462 xtb: 6.7.0 (08769fc)
C           -0.13719213317318        1.72851253086403        2.88633854586754
C            1.60248399251252        2.80785371369345        4.10666644388883
C            2.19039749100388        1.55001905543228        4.40223018829026
C            3.44917995824759        1.86991120649494        5.06935600167445
N            3.61419008648718        3.20352505794752        5.17021319672300
C            2.55104494431817        3.79944673121062        4.58916969176339
C            3.33132253240520        5.96823333634860        4.50391924961357
N            4.44725700604742        5.80928831295580        5.27833310776520
C            5.24834827043968        6.91369823686602        5.26501953652108
N            2.41189981757607        5.07526801512991        4.26472608715596
C            7.12282108073555        6.18467727639465        6.44552044971273
N            6.93257209709523        4.85116339348211        6.46783072500120
C            8.11135611727262        4.26795568631194        6.77908768687058
N            6.37785737461365        7.11598894478629        5.87701859796019
C            7.51503473536017        2.06927537679330        6.37755930260352
N            6.17094698403220        2.24839518414206        6.17702726455753
C            5.54759684613260        1.10642818431452        5.75622357397153
N            4.33000106740564        0.92111510462267        5.33540989786006
N            8.39383494417505        2.97469573143410        6.71308935678180
C            0.45006988632589        2.91138771688817        3.37993534765246
C            0.45610894045519        0.46268484108010        3.17415404069381
C            1.62890618313470        0.38585960562964        3.95392697909255
C           11.22516002300845        6.44297933399504        7.06591036892178
C           10.50672308147575        5.22889636630050        7.14157444814283
C            9.14496905762212        5.27595977998807        7.00451733739818
C            8.47661462741229        6.51997325466359        6.84905746004159
C            9.13213573698648        7.71533395191408        6.90590035982673
C           10.53547644426903        7.68902192067628        6.98887305407555
C            7.71796075084944       -1.86650820537190        4.94536444327624
C            6.51229319405799       -1.18844795521953        5.18940476904238
C            6.56954333663705        0.09099648429012        5.67904113568726
C            7.81024486490171        0.69632695582971        6.03673993321863
C            8.99573423334846        0.02147727599638        5.86206172374540
C            8.96741168876283       -1.25431275052313        5.26734250013314
C            3.13447232825788        9.10277949162186        2.38059682340346
C            2.66245359156126        7.90452871926258        2.94209087299508
C            3.42468284830935        7.27133958131722        3.89379830500408
C            4.64094959218773        7.85485025954715        4.35537042678258
C            5.11296751129615        9.03062388939479        3.82832256862540
C            4.38314120820646        9.65582794334176        2.80162954430445
C            7.71265593122247       -3.10221680602324        4.26319410029799
C           10.14727731608395       -1.91873538318959        4.86653994182028
C           12.62778655097100        6.46005962371229        6.92462773821648
C           11.28630147989097        8.87012830121641        6.86210053297160
C            4.89606256659984       10.79276829882865        2.13672029207567
C            2.42015263325071        9.76755981373547        1.35822819232731
C           -1.27896486778440        1.78852090942461        2.05893010282421
C           -0.13573766048605       -0.69140653212877        2.61700545336695
C            4.21607948029030       11.36238152480770        1.09602166968763
S            4.78129028180169       12.68393435313084        0.07368625363386
C            6.49726678957330       13.00953276623023        0.60112922350782
C            6.54715045816034       14.03910432264284        1.72491550175939
N            7.88568167107693       14.54949828902078        1.91099680295630
C            8.59455738465819       14.42842152192888        3.05218809358557
C            9.96779219152687       14.99671347836479        2.95687136562398
O            8.12806465407357       13.93481000647409        4.06836936369443
C           10.11809154036862       16.35632753485613        2.71575166254535
C           11.38851606246537       16.91197688328913        2.66754700714463
C           12.52384126102673       16.08940133478929        2.83085290040813
C           12.35761005820031       14.70826371103309        3.01382462549169
C           11.07375872659494       14.17824944361003        3.11026919986742
C            2.93867951800846       10.86537905787418        0.74178095315523
S            2.04735620423726       11.69544661196632       -0.56067539566703
C            0.95522599797010       12.76878391522093        0.43738765708501
C            1.77987019369275       13.82064069719934        1.15939050887312
N            0.99849095609176       14.88065806851004        1.77523253513595
C           -0.30460189266878       14.85792878402853        2.12595215381356
C           -0.77278260378242       16.05779064936776        2.88843810765154
O           -1.07792964931370       13.96537092805028        1.83523173738490
C           -2.10601233177306       16.40785799460799        2.75345190742065
C           -2.63142823673299       17.49468358748402        3.43229967112348
C           -1.84009315349946       18.21190538001594        4.35081979519742
C           -0.48743565982976       17.85222961964001        4.48934809813531
C            0.03447793480083       16.80170202507384        3.74189220085535
C           -1.81993588336737        0.65343584686385        1.51740006206938
S           -3.21643272318166        0.60454048856368        0.43652026243569
C           -3.66745547072703        2.36726844260166        0.28067886500772
C           -5.01867467887899        2.48695892759471       -0.42223650426660
N           -5.50003970515020        3.85437377340486       -0.39525792620129
C           -5.80975859495869        4.44590757398790        0.77762949359206
C           -6.23602332276871        5.86249900378641        0.71374719586976
O           -5.72705854037914        3.82898796073471        1.83230913518927
C           -7.14256134949060        6.31379415296770       -0.22693089684693
C           -7.57836842533326        7.63940571557925       -0.22082250856913
C           -7.04533296973609        8.54447029723636        0.71048979573423
C           -6.11539266125013        8.07322241870397        1.66449948314275
C           -5.73975004517056        6.73872483857034        1.67081970912048
C           -1.23477959577635       -0.59992899468703        1.81463995442244
S           -1.96238131250082       -2.05567981454846        1.09013896639636
C           -3.32493475415614       -2.25989203514483        2.29800564136360
C           -4.47998619972542       -3.04551827240687        1.68674904115081
N           -5.73459222438066       -2.72932976279837        2.33211564583188
C           -6.31161747743860       -3.50090351439367        3.27515009016874
C           -7.65754166374105       -3.02712108977195        3.70894054593164
O           -5.80562060578688       -4.53305322512155        3.68603111708620
C           -8.67765999223606       -3.95955127537903        3.77458342983961
C           -9.98305529457014       -3.56585349748007        4.04285778524843
C          -10.26015508329019       -2.22504316860837        4.36411609239721
C           -9.20862634289600       -1.28798998713176        4.33309937494082
C           -7.92923241636957       -1.69015270359261        3.96955557921664
C           10.11505747720267       -3.07950976150802        4.13777648150650
S           11.64442243132708       -3.61369955146682        3.41342691829389
C           11.82919524325207       -5.39105643399822        3.84416413498757
C           13.31402168864196       -5.65543511627895        4.00526663575978
N           13.59882140276008       -7.07437138933948        4.09034076952990
C           14.78059027308881       -7.53516658125950        4.54370649904065
C           15.06363878357732       -8.96882641908495        4.27318331880373
O           15.60446540523596       -6.80810581306801        5.08375548230152
C           14.10841664167114       -9.96546794002043        4.26349983690592
C           14.45797058867633      -11.27826720973127        3.94042739980992
C           15.78915784594752      -11.59020609247672        3.61956795180626
C           16.74779352853638      -10.55421839372685        3.58866740327628
C           16.37990841364560       -9.26818985848961        3.94122772051387
C            8.87017621892320       -3.68827906612497        3.82792033214577
S            8.89343785947863       -5.14016680190726        2.81694554082120
C            7.15261147309182       -5.67557022788861        2.71149914530057
C            7.13815017435394       -7.15482035145136        2.32762216535058
N            5.79331320589575       -7.67448810350175        2.20389859859654
C            4.90403082519394       -7.68892618160336        3.23011362384943
C            3.63861627900920       -8.40367285605794        2.93150182255405
O            5.15478358756380       -7.15652045867198        4.29943518702187
C            2.44198167927037       -7.94453775834314        3.44243389098724
C            1.23613078049054       -8.60546572879631        3.17493665908349
C            1.26222338958232       -9.77282461980237        2.40178770967279
C            2.49399632632763      -10.24970447907233        1.90619037954611
C            3.66815974116503       -9.56519185718907        2.15759423759872
C           13.31300899107403        7.60977237986881        6.62261023422034
S           15.01977981510525        7.55499386291471        6.14339210000921
C           15.31187832905560        5.84122765209939        5.59442028049980
C           16.58356165885536        5.89085826110041        4.75038083598522
N           17.07312438847486        4.58144702639802        4.41448828688881
C           18.19089905657639        4.05198243112958        4.96325348135091
C           18.59340545348444        2.73776464718653        4.40933680901367
O           18.84862060494506        4.66169691274462        5.79667985245479
C           17.70841744493451        1.88111217740557        3.78070756277400
C           18.14206672545328        0.69562466544867        3.18634426751894
C           19.50420935021605        0.35629095389791        3.22627964474432
C           20.40506628212442        1.24633489777500        3.85208786442137
C           19.94300396184839        2.40204129861782        4.46015149362808
C           12.63953875156592        8.85485105700138        6.63901923333186
S           13.30665195943782       10.43490718886392        6.19174718878096
C           15.05536016976223       10.48582758693961        6.72352370394764
C           15.50241571805531       11.93349399010765        6.84564971820349
N           16.94858508769750       11.97862200023873        6.79464483576243
C           17.73194105755647       12.94355934060857        7.31083382624512
C           19.17593729518010       12.74167831253872        7.01753864420884
O           17.30212100826557       13.90153403419434        7.93553217337152
C           19.75941754676515       11.49148081922318        7.11753342108971
C           21.09351203050938       11.31117673354706        6.78199225773153
C           21.87817016108083       12.39854443328735        6.35211348059375
C           21.26969050327395       13.66582815345302        6.24109804038933
C           19.93284175618449       13.81894593609291        6.58195508778010
O           13.48690826362835       13.94016682608242        3.06836909480032
C           16.15521707372135        9.85946639702321        2.67708833996231
C           14.74863323951923       10.43307580559314        2.79348487554201
C           14.76692305544492       11.95727291822836        2.85928271868800
C           13.36639967613128       12.52989351979853        3.05520239205696
O           13.71764170744599       16.73891247131795        2.74612377478502
C           18.04888087626307       18.09381605145199        4.58865140228651
C           17.07132665885588       16.94158722056044        4.39371073941816
C           15.82870030788319       17.38663056792801        3.62737109581166
C           14.84500830921973       16.23599540054421        3.44202489597807
O           11.64868563112515       18.21793439070930        2.43739817759427
C           10.29768813687127       22.88397768613926        1.48513896259811
C            9.89903598410576       21.46823234205412        1.88442991914117
C           11.09247254955687       20.52006314227786        2.04076383735552
C           10.55997250560554       19.10968742068729        2.31227828465524
O            0.27807740681366       18.53387072692703        5.40567318705441
C            4.07458683363254       21.51201018338316        6.24580441841499
C            3.64542691582706       20.17520076047497        5.65260465859497
C            2.14270776650667       19.96284228222262        5.81589327626716
C            1.67381577489203       18.65929902278912        5.17578688461876
O           -2.49683036751618       19.17211465866936        5.05537572045491
C           -3.25000630889091       23.55620748635570        7.08837215536697
C           -2.21722413795050       22.48383616176510        6.76452266725045
C           -2.84648806757316       21.30022980183653        6.03509736442624
C           -1.80703926113540       20.24245309331068        5.67731278363391
O           -3.93159739843415       17.81600538744742        3.18231625076935
C           -7.09542834051195       20.75218016208709        0.82486563539389
C           -5.81217710926667       20.66419029248534        1.64246183906648
C           -5.31968249150367       19.22470003235681        1.82238495243776
C           -4.23763152267112       19.17726654096808        2.90856457704338
O           -5.63778438403788        8.97772253036081        2.55352616780688
C           -3.60626355771449       12.39815809855651        3.40818053755020
C           -3.40899031004452       10.95388437284406        2.96693444800278
C           -4.01829571856553        9.96816240953164        3.96803162213230
C           -4.47728450505496        8.66944186286177        3.31262400874355
O           -7.48129591334665        9.84439423827408        0.68755384350454
C           -6.81944732685750       14.63500885567445       -0.14099416630544
C           -6.24380852845196       13.37339359718252        0.48969055398777
C           -7.10030647694070       12.14727075133289        0.18410842717575
C           -6.53285720510679       10.89516752525060        0.84442036712274
O           -8.49763156118623        7.91129689702627       -1.18236108349337
C          -12.75193216717262        9.86170346585684       -2.66580350302178
C          -11.40475949699872       10.10274228884747       -1.99513864527588
C          -10.45588578136073        8.90595792226179       -2.11361354436174
C           -9.24649075434538        9.11627254235315       -1.19587985164521
O           -9.50255612854261       -0.00649947259350        4.71890582039919
C           -8.90869598416824        2.40726113115645        0.42365330581662
C           -8.62251015924605        2.38594190399535        1.92021197551978
C           -9.18879859363848        1.13481120574785        2.58156794509073
C           -8.85716395896783        1.07701845967111        4.07192330927082
O          -11.53669940815013       -1.92766362010947        4.75262835691487
C          -15.87185603002063        0.33695217071934        4.44766421738928
C          -14.37599492896327        0.44950571790909        4.18135457419339
C          -13.64347973171714       -0.83502298835342        4.55943074438759
C          -12.14019030654245       -0.70926046900823        4.33547868726639
O          -10.92926365187396       -4.54043310525166        3.96728115558193
C          -15.01263378748193       -6.55661976394397        2.14165395447463
C          -14.28960796072855       -5.26884947197346        2.51869641940190
C          -12.80381254827959       -5.48646676328933        2.82008456391211
C          -12.20962125420642       -4.21870606729032        3.44111244785537
O           18.01254249722803      -10.89083672675122        3.21055943131376
C           22.37346482083008       -9.71156470788881        1.21377453735554
C           21.15715712517888       -9.27001508358250        2.01830002173768
C           20.20701226705738      -10.42297219617175        2.35996586031362
C           18.96778321041111       -9.85718362076766        3.06124003032636
O           16.13827265568820      -12.91125920081765        3.45347634134349
C           17.81571291634659      -16.88215977378084        1.14852782769651
C           17.81473821927677      -15.35892573456292        1.17997628067389
C           16.86529981026375      -14.82225866548208        2.24696312261390
C           16.88846528879990      -13.29862376859298        2.30955166984526
O           13.42292708016019      -12.15594627583148        3.97472809624712
C           10.72310222330891      -15.94705691053194        2.39801613502472
C           12.11639144688382      -15.34512965460951        2.52225724812520
C           12.08787149964859      -13.96929832951668        3.18367007617924
C           13.49454042203722      -13.38782261323764        3.27538824909640
O            2.41305860459949      -11.39026390363654        1.17212065334313
C            4.08988513499727      -15.00169777930023       -1.71922559864967
C            4.41799989487253      -13.85534333239866       -0.77007562789179
C            3.17590554469208      -13.22112945340828       -0.13634011491453
C            3.59121899923270      -12.01263080256464        0.71178326682129
O            0.12607788631820      -10.53038449216925        2.19353108465012
C           -3.25645025036979      -12.81002882936644       -0.51042375338024
C           -2.10448030359759      -11.81266120926717       -0.52590748047115
C           -1.50117297037081      -11.63283141881495        0.86344093093612
C           -0.34387875199351      -10.64165100513372        0.85766523474722
O            0.14596065807323       -8.01535351974118        3.71036871357636
C           -4.60235424411713       -7.58727130165578        4.97460727176042
C           -3.51838881499904       -8.42695316622881        4.31208367465716
C           -2.16724502328968       -7.71523387572006        4.27341931270416
C           -1.14476888507359       -8.57916681856820        3.54349329760852
O           21.72935926579463        0.92055796698338        3.78711866613284
C           26.37767318845169        2.36323737013225        2.99902548626042
C           25.00845343914149        2.67907157823567        3.58897028094553
C           24.04873489245759        1.48474282516054        3.57311910330140
C           22.67622920878293        1.92908571828656        4.09033862482230
O           19.92104422424531       -0.79324773711465        2.60655308002554
C           21.37661818728192       -5.45972024121718        3.05562993890768
C           21.62807482556401       -4.01774229418810        3.47883297596622
C           20.63750788529569       -3.05949607075204        2.82409576265735
C           20.87599175792862       -1.61767941342632        3.26245138144186
O           17.13789418206969        0.01409108749702        2.58716385701674
C           14.53980591450854       -3.45473769651044        0.37630759643497
C           15.93936817849755       -3.04794103918697        0.82242730669784
C           15.94707886053351       -1.63192723293816        1.39048093017906
C           17.31509633149816       -1.23617033758332        1.94116983285644
O           22.03381787260981       14.71467256633626        5.80657197508883
C           22.76759491265195       18.53709398240774        2.84643017494974
C           21.76759060205281       17.75264159010749        3.68728015198255
C           22.43967038689252       16.74031063310980        4.61992246451337
C           21.38327628315010       15.87430836924892        5.31631897284430
O           23.19678882950924       12.11479008048521        6.14146183792034
C           27.73231417410337       12.44162264018053        4.33722858875544
C           26.36965475607808       13.11558626200359        4.43806023302824
C           25.37738236114493       12.25928277242571        5.21938981950951
C           24.02243274063914       12.94723141436872        5.34425994471198
O           21.57087360054711       10.04200319638499        6.91718105170425
C           22.42267190727311        5.78812793346911        4.66334684129830
C           22.77394323008559        7.27062469593740        4.70281495611767
C           22.05347340191903        7.98302144823939        5.84252982467995
C           22.35311719375369        9.48023524697746        5.87202406138826
H            4.64380357937296        4.93410611802256        5.75413806347175
H            5.73714850578692        3.16291201716172        6.27011973831029
H            0.02401125406005        3.87657526403330        3.15072159606699
H            2.08191685190592       -0.57108054731291        4.15832745017155
H           11.02444422315910        4.28578601958544        7.22543864252740
H            8.60066406170889        8.64730515075540        6.80411216901035
H            5.56436574837559       -1.62910734756998        4.92351679098575
H            9.93762172110648        0.48543817706920        6.10738473633478
H            1.73713891048648        7.47194397836468        2.59670943461283
H            6.05389479299240        9.43830220461949        4.16411724222600
H            6.74869807259646       -3.52343778116481        4.02412141248758
H           11.10441634774333       -1.47268273563881        5.08947524820000
H           13.14447059920972        5.51268127352446        6.97294934035717
H           10.77089667762738        9.81858111968232        6.85318072121546
H            5.85065925772975       11.17388274274834        2.46588135998059
H            1.45605602190064        9.39005300220416        1.05594739599504
H           -1.68554762817223        2.76543220795185        1.84606534733476
H            0.29058640914561       -1.65974778769625        2.82802013448492
H            6.98198753818659       12.07309091058054        0.86950752890015
H            6.97668166500832       13.41092159743353       -0.29347793129660
H            5.87000839131144       14.86523988684123        1.47839787049617
H            6.23106382079034       13.59415722771959        2.66960080578466
H            8.34027678199577       14.95889771547163        1.10923507228740
H            9.24013547333830       16.97454426692219        2.62124661879919
H           10.92664092652538       13.12650382245734        3.29348866473654
H            0.27306693716665       13.21998654212394       -0.27956946438365
H            0.40134430745212       12.14276031912478        1.13177930938012
H            2.37985385306010       13.32609084960406        1.93467016779369
H            2.45943542169661       14.28866182952770        0.43905159291188
H            1.54109054106100       15.68206938655961        2.05382225151466
H           -2.74222616715888       15.83979853471049        2.09456589988609
H            1.07198220299887       16.53606405545144        3.88437368076836
H           -3.76049545628863        2.77909123246411        1.28437784774336
H           -2.88500654678905        2.88516302775642       -0.27563505289147
H           -4.95087298214587        2.15238502254107       -1.45714479859387
H           -5.74216000999838        1.85916113621158        0.10793666111077
H           -5.48298875536760        4.40358126409691       -1.23812917111216
H           -7.57048002994020        5.65448072712082       -0.96559347198437
H           -5.06501807441519        6.36393538073026        2.42210255438718
H           -2.90826874349129       -2.75967316189285        3.16859338892286
H           -3.65090436026009       -1.25697724159217        2.57160960212831
H           -4.56430730108896       -2.80337484276823        0.62385031361416
H           -4.31239539845787       -4.11820919674960        1.79884308461619
H           -6.18561677840751       -1.86985360586216        2.06287824760489
H           -8.47535434560557       -4.99724794291214        3.56742683956654
H           -7.12942385058282       -0.96558578793912        3.95455724196061
H           11.28161405712202       -5.57364610841883        4.76482868914713
H           11.41631274535822       -5.98820736234055        3.03079260121327
H           13.84832130108627       -5.22535029360884        3.14761999293895
H           13.69153234915532       -5.17164338823046        4.90633124786910
H           13.00810904663539       -7.69484129334128        3.55935476046794
H           13.08150760930462       -9.77831113356433        4.53317311223662
H           17.09862454392252       -8.46770732275071        3.97829100385134
H            6.68070020279385       -5.55791740214137        3.68448347269610
H            6.63836732722748       -5.06974678032583        1.96432278830088
H            7.65345957451823       -7.29920152194801        1.37635673675164
H            7.66926051300474       -7.72251148032143        3.10105376045869
H            5.49508710801419       -8.02079191441295        1.30813539145161
H            2.41368978841595       -7.06163788594136        4.05918306905295
H            4.61169342899586       -9.96475520900131        1.82217842619894
H           15.46097080269768        5.19169195506815        6.45858719498555
H           14.45307462819477        5.50614529904365        5.01248744704001
H           16.39307663135374        6.46160706480769        3.83600441193371
H           17.37572656812869        6.39118346338000        5.31537557452616
H           16.56609762786388        4.05012788739399        3.72649677132637
H           16.64497918413304        2.05801632661895        3.74972664409124
H           20.61119383899879        3.07937625047107        4.96437109697816
H           15.14044480064278        9.95036980978641        7.66633076510950
H           15.64954733623974        9.98903309373796        5.95677885207399
H           15.07834744498130       12.51849054235728        6.01908714020665
H           15.15943132928495       12.37383302430859        7.78267762802427
H           17.39416840044267       11.26442817260308        6.23941763928467
H           19.21267418988927       10.63500218815676        7.47873230233965
H           19.45641294977577       14.78288275471912        6.51643596332832
H           16.12077233257103        8.77351322394774        2.63657453635567
H           16.64422213069850       10.22066376259948        1.77504966888720
H           16.76118163097860       10.15050299950658        3.53263341655530
H           14.26480810412058       10.04165205778431        3.68910859637074
H           14.15645147432188       10.11614630994339        1.93267260796651
H           15.18671709920739       12.36587546270510        1.93777198116053
H           15.39802470108032       12.28763584372526        3.68593129365462
H           12.94148968896249       12.16880556810507        4.00078379926861
H           12.71653822700515       12.21328390434870        2.22868598800654
H           18.92302021471141       17.76308360369446        5.14358412593314
H           18.37865926683521       18.48144228525370        3.62755211141287
H           17.57776831781216       18.90321726559077        5.13986754438992
H           16.77697529989488       16.54258743789398        5.36763438481134
H           17.56266340018753       16.13399081568521        3.84508636539948
H           16.11139886479315       17.76745883935844        2.64483235948081
H           15.32744248576072       18.19422296713807        4.16253162694934
H           14.54393313188133       15.83980473070192        4.41866903321768
H           15.31634626652865       15.42568248945059        2.87360231268223
H            9.41008486951770       23.48730222995060        1.30625393757238
H           10.87960482783113       23.36133279931360        2.26850563640864
H           10.89144339737071       22.87100722231064        0.57384198227867
H            9.22546912863355       21.06538645077615        1.12257785799494
H            9.35226915762807       21.49556300799183        2.82868310199571
H           11.65719608249481       20.49303870930759        1.10249941697516
H            9.91085832385659       18.79542184475881        1.48089641517520
H            9.97103557998810       19.11304068488634        3.23910072235469
H            5.15339038124016       21.63291936645778        6.18655790922885
H            3.60715930960564       22.33776920079018        5.71281419563415
H            3.77858818941952       21.57454632103816        7.29087933159175
H            4.18506675316150       19.36077169811889        6.13927379454935
H            3.90052689056614       20.15249006880580        4.59027212593208
H            1.59878591977797       20.79181357588126        5.35717163778224
H            1.88527252323552       19.94577041925757        6.87592733431060
H            2.21272997174104       17.81092160163344        5.62098092631532
H            1.88139291612216       18.67871709906449        4.09909214562309
H           -2.78966037236009       24.38200419304771        7.62564855694385
H           -3.69283453404475       23.94643531655759        6.17494354302400