5860
 energy: -8394.264600757026 gnorm: 0.000364669886 xtb: 6.7.0 (08769fc)
C            2.06510853203072        0.71138002588168        0.64049222364261
C            3.41687922993605        2.22497900718188        1.88438687248927
C            4.25495458409751        1.15101575274367        2.28978652808040
C            5.30204902527186        1.77909126606359        3.08515657274095
N            5.15031140691956        3.12143485225666        3.11016283221690
C            4.06408131811714        3.43078576913513        2.37469572068312
C            4.32161286156852        5.73033436003287        2.14435053307293
N            5.36784412679999        5.94580662845916        2.99980627884651
C            5.82140246132131        7.23518627654558        2.95594006337033
N            3.68243704693907        4.62019553570791        1.92600821638941
C            7.56812480719582        7.07922973173348        4.46251322033884
N            7.56014710477212        5.75260399077332        4.69337831386261
C            8.65571036220989        5.45469814983622        5.42292033533792
N            6.78294782094689        7.77044906374213        3.64633359017465
C            8.60199880552291        3.13324505434877        5.32053976564487
N            7.39446469185391        2.89453514767889        4.72135348946848
C            7.27670108932234        1.60125742409281        4.28254144630452
N            6.30871302077649        1.07806493362055        3.58684544469312
N            9.13516455651211        4.25499517267180        5.70439377687395
C            2.31851814426894        2.01873892319186        1.09893980398804
C            2.94082425414700       -0.35953899200933        0.98504166868404
C            4.03342181062041       -0.12630766914445        1.84838419162740
C           11.19613652689367        8.16177035847298        6.24877348164452
C           10.65744172041949        6.86014583690923        6.28449114958990
C            9.43445326555757        6.65020382663400        5.70785213781163
C            8.71299799728778        7.70929644208124        5.09494699833826
C            9.19119466241838        8.98866182749125        5.08425434244038
C           10.45502802945163        9.23052662801286        5.65648222397807
C           10.37515549838061       -0.55372544862172        4.48211953877114
C            9.00470747686346       -0.30482076550235        4.28741947763965
C            8.50794392787207        0.93062734126332        4.62745207379343
C            9.33115404524814        1.89103147510856        5.28331620929305
C           10.64367088352218        1.62810685948432        5.58046806316800
C           11.19904762740038        0.42504084625338        5.11933077771083
C            3.35405606894282        8.60515410333143       -0.14384604455371
C            3.24602900495769        7.32338961947270        0.42619083440858
C            4.09503239644354        6.97774129678657        1.44703194546924
C            5.04729941618874        7.91385084623652        1.94512856735567
C            5.15946675817675        9.17304822864831        1.41445401750603
C            4.32313964670741        9.53485553821558        0.34206579814147
C           10.98900964388069       -1.70717645295302        3.93993387410481
C           12.59727442269516        0.24733002664696        5.10340700895108
C           12.48824271208157        8.43878195338522        6.73999559995591
C           11.04353969966431       10.50678651701157        5.58476449078575
C            4.44318932925005       10.79683433375889       -0.27950509610087
C            2.54630552282326        8.99145198222437       -1.23398910813806
C            0.98544114013637        0.45755830765188       -0.22670836886376
C            2.69831775259227       -1.61808348898685        0.39777123915921
C            3.64784902043671       11.14044148877312       -1.33870933724178
S            3.71958561140003       12.66539458740131       -2.22436755768362
C            4.68131925949694       13.80363715969555       -1.16514467186685
C            3.88124921929990       14.18914036657226        0.07622896298580
N            4.25556198001881       15.47147470210716        0.62846599250973
C            4.78285379123179       15.63955169053684        1.86048276997620
C            4.85515891002782       17.04806153755732        2.33685406645531
O            5.12909203748215       14.70312495352012        2.56661982795250
C            3.79096019240397       17.92112522229560        2.13383435061590
C            3.83042487805621       19.19287482577325        2.68168301533941
C            4.94994080845375       19.62108506187878        3.42541457896641
C            6.00041334575353       18.71757597046511        3.65746684964957
C            5.94014379902834       17.44389638172899        3.10546004627668
C            2.68772616602997       10.21610226370019       -1.81692510178541
S            1.70554135246371       10.66634132939596       -3.23156720952545
C            0.07125488303156       10.85204391107978       -2.44013688980831
C            0.10909569785611       11.99785319784517       -1.44111500475842
N           -1.20751110245014       12.47877436533652       -1.06408705663287
C           -2.29500387319906       11.71757344221232       -0.78377196549385
C           -3.42449243871106       12.43092379853293       -0.12274489097161
O           -2.36554719267388       10.53458321410327       -1.07112627454567
C           -4.65257660581675       11.79223613031592       -0.08611939429811
C           -5.76093447043565       12.36959176498475        0.52237376045489
C           -5.66195069038404       13.66270104587526        1.07547810330117
C           -4.39486630966473       14.27980727656408        1.10285060340081
C           -3.29982053739530       13.66355968662478        0.51614608543035
C            0.78180962789522       -0.76992143660351       -0.79881712684569
S           -0.51895002496806       -1.04236429230164       -1.96821650271945
C           -1.56287526015623        0.44529031084664       -1.79103725016869
C           -2.90534727213576        0.20629293449082       -2.47875166145383
N           -3.77752011531565        1.34760249329279       -2.31701220446944
C           -4.50256936715124        1.52575183976744       -1.18730362889753
C           -5.35312584094933        2.73473845101382       -1.13301022751927
O           -4.46538662491857        0.70631441473069       -0.27878831341942
C           -6.51652267042769        2.67422223687447       -0.38544209544647
C           -7.38402126587319        3.76036902930437       -0.28772901219593
C           -7.06611358274075        4.96328888502063       -0.95148415913300
C           -5.83665543867916        5.04417801566546       -1.64630767470846
C           -5.01065749401263        3.93403012194605       -1.75270234603160
C            1.67065453473028       -1.83037499631330       -0.48704514009573
S            1.65765196173207       -3.39602919522061       -1.32643980095017
C           -0.06172544395777       -4.01594603631389       -1.18129567897961
C           -0.05054990562679       -5.53649975757755       -1.07235643927767
N           -1.40136477632838       -6.04392418362918       -1.17206758494420
C           -2.04294742190353       -6.70495392104865       -0.18643416045298
C           -3.50268598790448       -6.89064430081633       -0.44516950958744
O           -1.49180328475302       -7.09499075857435        0.82667478887020
C           -3.96181374900768       -7.54629732605247       -1.57135102708966
C           -5.32741707307224       -7.70490266833019       -1.79978412373311
C           -6.25612533562780       -7.17753364056906       -0.88492846388093
C           -5.77479783685833       -6.47191765656125        0.23562808446185
C           -4.40961748241005       -6.35364592238628        0.45614955623549
C           13.16156696819540       -0.80496714368848        4.44540880447426
S           14.91891291716656       -0.84817156528828        4.18108888211479
C           15.49502671956551       -1.03765426520246        5.91376474606017
C           16.52764175268540       -2.14518881324386        6.01608031653748
N           16.08199518916787       -3.32604880594188        5.31159100037644
C           16.69013823249452       -4.51480968043199        5.37765790075593
C           16.26545477701724       -5.48764713670719        4.33014791539346
O           17.56485750925988       -4.77217444582337        6.19821629466453
C           16.07454121662702       -6.82554500635171        4.61084902702877
C           15.78128888305396       -7.73803339726702        3.59062005815245
C           15.74706940937837       -7.29684584463867        2.25848459078366
C           15.94412816052315       -5.92595570212170        1.98550437593282
C           16.17707145283844       -5.03298402528992        3.01658215086485
C           12.35141200959923       -1.81934824723593        3.88227580092996
S           13.22775064607210       -3.16049660607176        3.13042414670762
C           11.93503493541957       -4.04171265079895        2.19675821023486
C           12.62522638803043       -5.10263677660836        1.34532955306777
N           11.68637732200146       -5.78748658599245        0.49265679222148
C           11.07402164378000       -6.93717378369412        0.85514425003548
C           10.04566784747032       -7.40497121360834       -0.10507959720841
O           11.36210713366338       -7.53212330159681        1.88402882734845
C            8.82921616285402       -7.85441485854040        0.37178061133786
C            7.82242604917167       -8.23830394984181       -0.51126272686704
C            8.07332128885045       -8.26811519700632       -1.89464049936379
C            9.33085659935200       -7.83551446730070       -2.36871655084282
C           10.28489511445168       -7.36884621849255       -1.47687452346930
C           13.04163134462426        9.68465756152825        6.63328341198537
S           14.69878376798226        9.98691245698529        7.20387652926310
C           15.59603719680168        8.93741633077035        5.99845793238310
C           17.06642572352976        9.34471215846626        5.98678579195568
N           17.86650080241654        8.45061165254522        5.17731245903138
C           18.13394662058193        7.18887783104654        5.60134982983019
C           18.89676454649290        6.32894147863872        4.66392144037856
O           17.77469825307600        6.79830794328958        6.70102220558934
C           18.78549755865208        4.95734288451658        4.80186280314439
C           19.45137920101847        4.08604934210955        3.94010925449896
C           20.29347302009009        4.61382153409082        2.94541745221514
C           20.42814815415909        6.01502444257652        2.83154279344102
C           19.71849907807255        6.85771766823701        3.67107189448553
C           12.30403986795883       10.74236203649495        6.05986761670326
S           13.05735790181967       12.33533145520878        5.87564558481602
C           11.78360459475876       13.40661711396550        6.64298653059395
C           11.71601699754404       14.75057768592583        5.93620847143089
N           13.00398604171215       15.40273386929270        5.94034640351670
C           13.51280660773880       16.02722819675182        7.02393133515607
C           14.92780873010991       16.43226204302507        6.80076075725943
O           12.85581026047620       16.27052089401304        8.02701091083219
C           15.86162457234292       15.46452578860539        6.47911186527016
C           17.17519695238959       15.81834367497030        6.18747051756115
C           17.54014782254009       17.17345024608802        6.13476889847899
C           16.57251138863923       18.15214327421258        6.44325526005598
C           15.29166039172984       17.77130960903404        6.81840715524615
O            7.02672961880847       19.14910023087883        4.44800020185129
C           11.18284242307929       19.08313341651644        6.97201707112772
C           10.36422946176019       18.35142402573779        5.91610530415926
C            9.11267420300596       19.13665798793284        5.53852832955271
C            8.19840475605021       18.37034710353446        4.58694932132473
O            4.87559693781454       20.90006970636088        3.87607277903939
C            6.56612747284332       25.42581479297336        4.71920367250554
C            6.92397409475182       23.94890814965210        4.60872691936806
C            5.71124231363168       23.10637403756102        4.22297317806346
C            6.06113932076473       21.62378634994995        4.16539900474203
O            2.84405163696354       20.11628181940207        2.56018914925647
C           -1.10469473256266       22.18094779676231        0.47389752019178
C           -0.10294531173242       21.03253543857382        0.45154015228921
C            1.03312967785607       21.21583359480515        1.46196641627070
C            1.82192700796950       19.90845469770233        1.60566180452366
O           -4.31015928715897       15.50956954817729        1.70421220218855
C           -2.13262031350044       19.51993828773383        3.47923270235022
C           -1.93723453975666       18.17491670926176        2.79155360494816
C           -3.26268000473096       17.44654192029583        2.58648340514918
C           -3.05588594978875       16.13950945366205        1.82914763834529
O           -6.82924741604612       14.23044609839966        1.47723482303475
C           -9.98397342412792       16.79092783732476        4.18190868871521
C           -8.56495957725433       16.73327762487705        3.63029176886377
C           -8.33394400603178       15.46532648220149        2.81517386022182
C           -6.89782483419719       15.37810523978583        2.30759472745690
O           -6.89294147413317       11.62411795974494        0.47392211134270
C          -11.04100481565178        9.66319863216654        2.26747259818429
C          -10.04037323972711       10.81239453858317        2.30243109929737
C           -8.77482860277812       10.53571253949214        1.48443137966866
C           -7.93427706604862       11.81502241790257        1.42478536878583
O           -5.51569914217399        6.25139183588089       -2.19409926516820
C           -2.88249837115309        9.65872479595220       -4.47120669522842
C           -2.95922108934169        8.17938928944603       -4.11883500866571
C           -4.21051656823581        7.88641715227598       -3.29813985079051
C           -4.29030309764420        6.42377024728032       -2.87556716037462
O           -7.96850660001735        5.98115602971389       -0.84614892219084
C          -10.63814580175893        9.84984474934769       -2.22989853199888
C           -9.28865455422184        9.14856072338438       -2.32928526750072
C           -9.28372336340953        7.83040378087810       -1.56004595045609
C           -7.95032768818928        7.10610868415236       -1.71187278675924
O           -8.48622220602650        3.49283574402995        0.44751105918471
C          -12.59198757819120        6.34372373067121        0.26774601759653
C          -11.35895065751074        5.86680035384099        1.02508203345950
C          -10.57890353761642        4.76783420333201        0.29889521307345
C           -9.27897321833021        4.49569813240337        1.06529254976913
O           -6.68924961654962       -5.92019988370413        1.08789857192605
C           -8.62579525698077       -1.67209804873429        2.51536772089747
C           -7.33059647552794       -2.45794589338009        2.35458880428067
C           -7.61323266640438       -3.90999896069723        1.98140420372973
C           -6.33423463937305       -4.71226467495413        1.74946013508791
O           -7.58351452183487       -7.44114965845968       -1.10336451252242
C          -12.21008067872023       -6.20413836259582       -2.13634996282012
C          -10.94274807224222       -5.81026014527232       -1.38832459472641
C           -9.82267265151096       -6.82257452726031       -1.61082787771918
C           -8.56337330923448       -6.44850382598690       -0.83499061961531
O           -5.63377157403027       -8.38485318093832       -2.93493813309102
C           -7.76258805740885       -8.30078789454610       -7.38429310358765
C           -7.91766992839585       -8.12287763902886       -5.87856724077352
C           -6.66358570070293       -8.51804413479425       -5.09193003671789
C           -6.85094088494441       -8.13360039545681       -3.61960628797387
O           15.91634680018296       -5.56256954213974        0.67198649727102
C           17.28984549738201       -2.68896640716579       -3.08670402139399
C           17.03040098072790       -2.81556258590474       -1.59018088588230
C           16.36578357533529       -4.14038581345180       -1.20119245007386
C           16.32207558965672       -4.25203736379462        0.32593390440386
O           15.65260072591317       -8.19927461242604        1.22144605762575
C           13.66014877843886      -10.27033255970758       -2.74531792412369
C           13.54044218272618       -9.15312604788375       -1.71557289775571
C           14.65506437070971       -9.22106457180400       -0.67653643437904
C           14.54372446791786       -8.09203664039946        0.34109050187090
O           15.59494647286533       -9.01234956721336        4.01752505459313
C           14.40233545809371      -13.77668051965519        3.58834099017165
C           14.57439653857455      -12.42868367521157        2.90240336135103
C           14.87218023180242      -11.30099297885332        3.88823220875730
C           15.09810778583548       -9.99995084792407        3.12734259685630
O            9.54307483849022       -7.92364616711817       -3.71185344740439
C           12.34189890567610       -8.15984673272568       -7.74269292650261
C           12.22139466444252       -7.71835905494895       -6.28917332614403
C           10.79447967373845       -7.83383901069554       -5.74247660149648
C           10.79956830106698       -7.54791297197953       -4.23762445663041
O            7.10253000730194       -8.79125891678710       -2.69601631065200
C            3.67727834991049       -8.34217830755449       -6.17701158383452
C            5.12770435118628       -8.07059506058329       -5.79810366793863
C            5.43135069648320       -8.53999285139177       -4.37803456628652
C            6.88225266912454       -8.26189174946783       -3.99659074757253
O            6.65396035566859       -8.60062022435582        0.07002470461948
C            1.86980684823777       -8.10709912709800        0.88968370874355
C            2.93464591928635       -8.26086876181596       -0.18678715491068
C            4.32602380835467       -8.28343380390277        0.43850505429242
C            5.42122923418574       -8.39983986435506       -0.61359090546531
O           21.29536024001043        6.45921670202525        1.87842038408259
C           24.08882409990877        9.76711344745921       -0.43474893161759
C           22.96619913234828        9.50951015290296        0.56315424862484
C           22.48524076988218        8.05478831369856        0.56524786312725
C           21.47360564272003        7.84937301456894        1.69732448473795
O           21.03197548585068        3.74875829185194        2.18104881369583
C           21.93420885072251        1.46814628323281       -2.06382312349258
C           21.70863540359105        2.81233400126999       -1.38276844734288
C           21.42720689322500        2.64388837103988        0.10750009840901
C           21.19780485157458        3.98928499740904        0.79024362622410
O           19.23064271867614        2.76818264406381        4.18274194306012
C           18.55679094393783       -1.95064626205166        2.92197643320765
C           19.16551662381989       -0.60320159066351        2.55907421325302
C           18.85966491231372        0.47081146341374        3.60124680023477
C           19.46025120644558        1.80373249350700        3.16748251214366
O           16.94859349189800       19.44981573726098        6.28192957510611
C           16.90188231386787       24.23220956116939        7.34742620678320
C           16.12319949526735       22.92176931816627        7.33101944874999
C           16.84499949778964       21.80494929561112        6.57172974864818
C           16.09778704464249       20.47825359275290        6.74429609571308
O           18.79895913733505       17.47633113261676        5.70162682307152
C           23.28867312933982       19.14829176771712        6.78215570342313
C           21.79644092003025       19.45736470382095        6.78385849830380
C           20.97885197642653       18.29062934387227        6.23693271646188
C           19.48271185233092       18.59267036139903        6.25937517352624
O           18.00353405398483       14.78039774999503        5.89431270035315
C           21.91173212768497       11.98752609716092        6.87057911387883
C           21.33269818882460       13.39614759011339        6.89124574545310
C           19.89812520620011       13.42618869528356        6.37344873967879
C           19.36583592091190       14.85361730488448        6.29418498285015
H            5.79260620842626        5.22887266743933        3.57916615402092
H            6.69008627181420        3.59837044548122        4.52650655371207
H            1.68374258332748        2.84063198537221        0.80467249086604
H            4.69363241737305       -0.93472969637895        2.12007977778223
H           11.21157629918148        6.04869654499404        6.73040115281739
H            8.63895124062251        9.78596897044315        4.61148534185607
H            8.37592555446852       -1.02850761387270        3.79322382253172
H           11.25659221410178        2.37145427878291        6.06402252578217
H            2.52029342925598        6.62229532626160        0.04703875341934
H            5.89597393878317        9.86323468840764        1.79549338990745
H           10.34449273078335       -2.45987808261695        3.51189182197216
H           13.22434432287773        1.00825375866515        5.54305817359789
H           13.04994942717104        7.63418033044496        7.19275348722765
H           10.48719450833387       11.29874421870291        5.10307357116224
H            5.18865264156996       11.47550870347039        0.10537829845761
H            1.81146333975600        8.29843786779118       -1.61259243852734
H            0.35068817909895        1.29546352723474       -0.46746931356193
H            3.35695773559164       -2.44114440423294        0.62959310135778
H            5.65021719334359       13.37025113030046       -0.92615458304029
H            4.83491801304000       14.67272867975168       -1.80657984947960
H            2.81909918428036       14.21596951603900       -0.19344516663242
H            4.02003301609755       13.44352434132536        0.85845594462051
H            4.04624494182297       16.29021532648525        0.07944897427076
H            2.91823113391020       17.59161994165364        1.59333330179739
H            6.73538207262086       16.73412767994918        3.26577538837169
H           -0.61186921838695       11.07130389631203       -3.25782402043613
H           -0.20888434443843        9.91652348251831       -1.96345328310127
H            0.66056525876153       11.66967780633684       -0.54863229161699
H            0.64486453000903       12.83837296549711       -1.89227240800243
H           -1.25244836799943       13.45461760519637       -0.82528693213398
H           -4.75840292820353       10.81974196835438       -0.53659620338027
H           -2.34416068416888       14.16005558616532        0.57030216298668
H           -1.73304648048417        0.61461129282703       -0.72836504172791
H           -1.04932078058239        1.29835805278136       -2.23821699315678
H           -2.76263851259019        0.00858940810430       -3.54219495953136
H           -3.39147106046359       -0.65669237746809       -2.01422062079076
H           -3.80824505257237        2.04345673069670       -3.04253993370939
H           -6.78726908702460        1.76487560307187        0.12712867713282
H           -4.07190908013706        4.02407069003119       -2.27504538049116
H           -0.49946245030553       -3.56195853383033       -0.29622991512784
H           -0.60978967363929       -3.70701142699832       -2.07232799015614
H            0.56443801008109       -5.96112187851731       -1.87306822211985
H            0.35587993029058       -5.84465160024034       -0.10830977260264
H           -1.94011426818733       -5.74384970923777       -1.97036263994067
H           -3.27958651034734       -7.97002983258667       -2.29141537958313
H           -4.04860652119166       -5.85516906838769        1.34134038371543
H           15.92083317635096       -0.09294118304839        6.24696864639437
H           14.61211325010071       -1.26683926853967        6.50496203824390
H           17.47953625764271       -1.80622578077577        5.59199914361602
H           16.68421207143040       -2.38505624249899        7.07063389913790
H           15.36185379619652       -3.17673173919188        4.61611996052400
H           16.14367743093858       -7.19446305281741        5.62229033133305
H           16.34863286834159       -3.99223714050171        2.80504500750401
H           11.23056448557020       -4.51037540249103        2.88463002738816
H           11.41707978787922       -3.31349686840450        1.56970330329461
H           13.39754871199453       -4.63954518810707        0.72879447336871
H           13.09257565560386       -5.84748390444460        1.99443200916624
H           11.32997377032302       -5.28748785011012       -0.30637699127980
H            8.62163606335325       -7.87705497665624        1.42988216242741
H           11.24438315755367       -7.03443936026307       -1.83529666583265
H           15.50002969522887        7.89334965373905        6.29722744288710
H           15.13582170187073        9.08506994880922        5.02115201201528
H           17.17491259438787       10.36240125534502        5.60921210664674
H           17.45376423564932        9.30659911370295        7.00891871012642
H           17.96717041101645        8.66985404505396        4.20051111432861
H           18.16430516472977        4.54542505559540        5.58072039387610
H           19.85439206318170        7.92349388066161        3.59510234040832
H           10.83145658274125       12.88548637439750        6.60701799610344
H           12.08380964823288       13.55067316704012        7.67915852748050
H           11.39186777237784       14.63535048909229        4.89993495802143
H           11.01293712884124       15.39367463276086        6.47084029878509
H           13.66148035958653       15.11033241838877        5.23323697577539
H           15.60819311779212       14.41552647211346        6.48425330351811
H           14.54823324925001       18.50963778264437        7.06802420706887
H           11.99872130109510       18.45451845636498        7.31765092660464
H           11.59266030878466       20.00715742509205        6.57075874998427
H           10.55583749507309       19.32735585826708        7.82744235438458
H           10.06748857152863       17.37790570222284        6.31084513140370
H           10.97715417964300       18.17321129077060        5.03035510551427
H            9.38833678612389       20.08775031174760        5.07940199536820
H            8.53912939031447       19.35557984518773        6.44212760988552
H            7.96069051242563       17.38797730598959        5.01165302441040
H            8.67882418939962       18.22314479085595        3.60983597140258
H            7.43889789861220       26.01178003156199        4.99719003673310
H            6.19055697751560       25.79938001936902        3.76960992697803
H            5.79644172526776       25.57509605770366        5.47292781050072
H            7.31625668752841       23.59754562568621        5.56581049516322
H            7.71086621200461       23.81939084599281        3.86211910873117
H            5.32902735905092       23.42451933118461        3.25155370040108
H            4.91766948498615       23.24643061527911        4.95596353079516
H            6.47572736552758       21.30729316390295        5.12785622124844
H            6.81323733740343       21.44447028693949        3.38747882424568
H           -1.92577389075184       21.97446079412066       -0.20823364650084
H           -1.51323253321099       22.30856318075003        1.47375923425007
H           -0.63936351768547       23.11395121216750        0.16872816897234
H            0.31848152529805       20.93509181521603       -0.55157403041567
H           -0.63136413555465       20.10497390590115        0.68048140653907
H            0.59891439880643       21.44628905641716        2.43957661801530
H            2.26085781291927       19.63417215865250        0.63610514847247
H            1.15498018216877       19.09844799226477        1.93314398597218
H           -1.17888589686552       20.02824824352900        3.60214804932366
H           -2.78847866690867       20.15869538942431        2.89118795854076
H           -2.58143015096091       19.38351745472152        4.46019027961345
H           -1.26282807106781       17.55061486001471        3.38064372895409
H           -1.46918664911044       18.33484768613547        1.81573863616074
H           -3.95236494158011       18.07451002910999        2.01903962872436
H           -3.72962445943429       17.22317089286020        3.54609889483239
H           -2.35099080510254       15.50226058151287        2.38232739773743
H           -2.63088901753151       16.34957419732652        0.83559581163406
H          -10.13623273593826       17.70123534805067        4.75796060589581
H          -10.71171149587662       16.77144622463386        3.37334698642789