1640
 energy: -2792.754755005438 gnorm: 0.000290488571 xtb: 6.7.1 (edcfbbe)
C           -1.21587298952352        7.00686033386407        3.01476391102863
C           -1.18853689681904        4.63418916643451        3.26803909475192
C            0.23063226507491        4.65127560521293        3.27004678705202
C            0.62857088634355        3.25679475766358        3.39900400387027
N           -0.45191959463600        2.45070767634198        3.45574298277611
C           -1.55377467408204        3.22751511745694        3.37820301586545
C           -3.20785765647852        1.60272096488823        3.36010246295454
N           -2.43665832231850        0.47752595154464        3.45046005617928
C           -3.17458885116067       -0.67110127224627        3.39611492857189
N           -2.81836783459041        2.84494294188505        3.33962966512919
C           -1.48397791311795       -2.24999424293084        3.53999299683080
N           -0.40946541221534       -1.43612919885828        3.61659945048787
C            0.69439039469516       -2.21161891236852        3.63657726664045
N           -2.75540879145398       -1.90397908753155        3.43774373450380
C            2.34757710147441       -0.58617708517309        3.60323458523693
N            1.57980708461440        0.54404263536172        3.59991984192179
C            2.32689401010537        1.68382894404335        3.49480077479320
N            1.90559525719862        2.91183778291587        3.40857106777295
N            1.95958520416271       -1.82818270955046        3.63496982288612
C           -1.91258649085389        5.78516888009275        3.14340112396239
C            0.21098010039991        7.02184760903956        3.01166612201977
C            0.93205156365555        5.81556582300591        3.14637685330820
C            0.39833208914059       -6.00362223345310        3.47805784234699
C            1.08013474297557       -4.77023970730336        3.56283751506566
C            0.34053469697949       -3.62287983607173        3.58341458058018
C           -1.07710858024418       -3.64884285933510        3.52661019838215
C           -1.76397125495000       -4.82623646611130        3.45582913972256
C           -1.02772546543925       -6.03149146326104        3.42889166090890
C            6.09572921873904        1.27875261137665        3.29337407878940
C            4.87685164584567        1.98094103428382        3.34561934030770
C            3.70966389451689        1.27021827177952        3.44811013527314
C            3.72165218985436       -0.15378299027578        3.51101916285589
C            4.89650540553148       -0.85841526390790        3.46361983205382
C            6.10579727193327       -0.14913492624262        3.34873286279971
C           -6.95245236645397        1.11159518715074        2.97080593134638
C           -5.75529872261162        1.83999485744481        3.09871535696357
C           -4.57543914792508        1.15550453915001        3.23795341434700
C           -4.55288307961096       -0.27018601950325        3.25264045946325
C           -5.70675305574154       -0.99948178519574        3.12977875575689
C           -6.92793391103628       -0.31697025160391        2.98316813158628
C            7.32866352691041        1.95756890167751        3.17446686351534
C            7.34570593672852       -0.82153312179189        3.28064539537417
C            1.10146874193334       -7.22475510608579        3.43515300416345
C           -1.67463492326584       -7.28137844959279        3.34097254258647
C           -8.14670445491501       -1.01619370561093        2.84467419916590
C           -8.19601205862862        1.76456373443338        2.82091242842947
C           -1.90418474186375        8.23005673391751        2.87843585542789
C            0.87414957926969        8.25756429116863        2.87082073300181
C           -9.32973231001095       -0.35026648145934        2.70057689526407
C           -9.35456700675710        1.05453967691484        2.68978313920856
C           -1.22822309518825        9.41054928956450        2.74468348301563
C            0.17433732576552        9.42445692551424        2.73936695939327
C            8.51672589710831       -0.13090762804871        3.16171368168556
C            8.50787921640933        1.27306872908642        3.10923229614351
C            0.44104013499845       -8.41764451756758        3.34497976197563
C           -0.96047224297640       -8.44597268295232        3.29912585178744
H           -1.42369768042990        0.49590151433242        3.53058419181022
H            0.56471663913274        0.54335019668158        3.64875566447298
H           -2.99178516700001        5.76815007698313        3.13859951604441
H            2.01102815743623        5.81943147831151        3.14348214996509
H            2.15802098484314       -4.74023737097672        3.60581488790044
H           -2.84213935105624       -4.84050175232078        3.41529360527244
H            4.86082312445423        3.05847074815373        3.30011808760792
H            4.89306955950043       -1.93610172619967        3.51004136299590
H           -5.76660724992395        2.91874894309361        3.08340776378387
H           -5.67856105911239       -2.07766731186094        3.13817204054406
H            7.31715036727951        3.03726408881504        3.13128713038646
H            7.34570177259274       -1.90090652204055        3.32259809231772
H            2.18099480132677       -7.19674998386194        3.47310054189488
H           -2.75483288629515       -7.29894895171125        3.30352494509232
H           -8.12096140260018       -2.09616152285919        2.85326853642297
H           -8.21020419109912        2.84502575966138        2.81005776142557
H           -2.98505081990740        8.21488824989696        2.88045173172460
H            1.95476710699406        8.26238081165728        2.86792608621198
H            0.99242241562198       -9.34562336499943        3.31126330272563
H           -1.46932338486637       -9.39627573153286        3.22934481203702
H          -10.25520539238912       -0.89665791895033        2.59278686154559
H          -10.29879757855215        1.56625553505483        2.57339764220396
H           -1.76871778556435       10.34018668792005        2.63958458016989
H            0.69533933255273       10.36454959410372        2.63048741104257
H            9.44350397295976        1.80424698836287        3.01473898971600
H            9.45819981697070       -0.65691237738262        3.10795791366187
C           -0.33298695053408        6.11095586554275        6.27199450680095
C           -0.27511641131592        3.73567524187159        6.44250754225638
C            1.14329719317466        3.76124010800097        6.44840420012947
C            1.54755735016568        2.36415233968859        6.52847725686748
N            0.47018827541578        1.55118778893247        6.56142152329381
C           -0.63182696333736        2.32772321195207        6.51091833416946
C           -2.28680687310434        0.70476176665857        6.50965902347692
N           -1.52635128289579       -0.42829989622294        6.57724015452829
C           -2.28201176263346       -1.56685742768903        6.55183709586492
N           -1.89662718323509        1.94587089142044        6.48874137477236
C           -0.58852978114607       -3.14253591968820        6.63728482281309
N            0.49173336333234       -2.33504771745657        6.66548064455733
C            1.59380712270638       -3.11603394943526        6.69145111579449
N           -1.86484814055125       -2.79840190039673        6.58250499167875
C            3.25537335516049       -1.49837110220295        6.66400129795229
N            2.48679914780163       -0.36700390256629        6.64686243468202
C            3.23348448206125        0.77597832338453        6.58824483860152
N            2.82114192912627        2.01122730915325        6.53820920835708
N            2.85974802769837       -2.73805764704642        6.69309495321927
C           -1.01601292312736        4.87902612132720        6.35953462736338
C            1.09339267187918        6.13905767370959        6.27276958318890
C            1.83033845470189        4.93732342693400        6.36614797090629
C            1.25011419663321       -6.91253601375430        6.64609351105723
C            1.94777198597293       -5.68547576490813        6.68585442259083
C            1.22645218603604       -4.52630311586535        6.68400032698466
C           -0.19174926463804       -4.54227197962673        6.64471586135452
C           -0.89424815536493       -5.71100678033295        6.60628327428341
C           -0.17540931935665       -6.92566371836879        6.60431680736943
C            7.00297641015645        0.39731122084745        6.47045701274900
C            5.77771682878515        1.08672555176300        6.49673140177558
C            4.61528309573131        0.36528304727393        6.56666674114722
C            4.63026680236368       -1.05959203362190        6.61657087741201
C            5.81450986569599       -1.74986736048866        6.59527345048770
C            7.02109868454475       -1.02980282516410        6.52137754460961
C           -6.04298390760214        0.28684624916537        6.24936057760823
C           -4.82847209249782        0.98995431349841        6.33385836452520
C           -3.66240298562644        0.27681709709543        6.43515767435752
C           -3.66110698240294       -1.14798281566196        6.45824421819857
C           -4.83364562731185       -1.85176718139932        6.37802870949051
C           -6.04435154958181       -1.14145915563875        6.26932939301032
C            8.23081381235950        1.08752803512173        6.39063039490640
C            8.26879286795350       -1.69015511458963        6.48930950442814
C            1.93637379571801       -8.14387355947557        6.63997254731084
C           -0.83924586096178       -8.16690988654639        6.55865426600687
C           -7.28272036389941       -1.81305307096039        6.17162130434951
C           -7.27481591442558        0.96589282829622        6.13348415014549
C           -1.03545306658273        7.32811876394642        6.17195737852843
C            1.74020694638834        7.38748335281365        6.17097904518905
C           -8.45437001211479       -1.12233809716818        6.05873896662978
C           -8.45139905310052        0.28182502107921        6.04126940430178
C           -0.37478495885619        8.51977967712380        6.07470069517437
C            1.02659804798094        8.54877292873309        6.07291599796705
C            9.43699615918671       -0.98867503487518        6.41054835333030
C            9.41799255868099        0.41456662540212        6.36014108543030
C            1.25969593481844       -9.33037846961934        6.59462295099089
C           -0.14149588122530       -9.34221019384916        6.55313881433091
H           -0.51138825016406       -0.43800068131658        6.63238918022798
H            1.47047716724883       -0.37923869206802        6.66505474663081
H           -2.09461586315699        4.84506994603197        6.35490613678949
H            2.90896100704411        4.95097664381541        6.36478758287921
H            3.02673099725400       -5.67063329538654        6.71359870576829
H           -1.97249767588302       -5.71236935880921        6.57290284006151
H            5.75292484934703        2.16399981796005        6.45677385292898
H            5.82195766780834       -2.82820125229108        6.63092261055975
H           -4.81216024275598        2.06823393843685        6.31463373280471
H           -4.82613559305715       -2.92990471208538        6.39049383611179
H            8.20881645864435        2.16659393123258        6.35131086031469
H            8.27928537890610       -2.77012434544253        6.52774364037146
H            3.01691099787143       -8.13089354627937        6.67156004874872
H           -1.91912905855122       -8.16940731492218        6.52626397249799
H           -7.28158199060582       -2.89360488125142        6.18533881743955
H           -7.26366928792336        2.04560207097057        6.11907786598900
H           -2.11532860192010        7.29769346008957        6.17230073997244
H            2.82107826558030        7.40639451362178        6.16983387737686
H            1.79921520458351      -10.26663860195401        6.58958933714919
H           -0.66372000869690      -10.28715940409038        6.51647679689871
H           -9.39422880229728       -1.64867028248944        5.98215686476374
H           -9.38687928923449        0.81266103210374        5.95044046198193
H           -0.92569136412161        9.44486784307101        5.99582730152615
H            1.53577758093253        9.49797567683278        5.99325123163513
H           10.35106529357974        0.95474867580573        6.29645777166258
H           10.38469607314536       -1.50673510800810        6.38522728125425
C           -1.21756374730941        7.21302094142562        9.36249826473950
C           -1.20702476657375        4.82957773917815        9.49027865909341
C            0.21178032697377        4.83952914367849        9.50809377982967
C            0.60171989647971        3.43955381236804        9.57915311047614
N           -0.48274947532693        2.63738287773467        9.59715340675087
C           -1.58129243572415        3.42184893094626        9.54368371661573
C           -3.24958194164591        1.80961527587830        9.53787557162417
N           -2.48779360905733        0.67544292696324        9.60339813359763
C           -3.23961137446129       -0.46575538682825        9.59370079950510
N           -2.84824818882574        3.04774926422052        9.51786683891490
C           -1.56204347102141       -2.06026580778873        9.69511995149563
N           -0.48246383690903       -1.24945257892697        9.71357731402845
C            0.61674962747105       -2.02999740887310        9.75977785779398
N           -2.83323494656304       -1.70337068085025        9.63649294302298
C            2.27984225836812       -0.41484130807013        9.74178373834968
N            1.52447079666119        0.72318471160669        9.70488715230359
C            2.28800045235228        1.85612527799927        9.66017059942202
N            1.87731464131114        3.08911519843990        9.60601175804893
N            1.88338309993339       -1.65370773366767        9.77263336620237
C           -1.92206795800817        5.99056592935714        9.42090783761342
C            0.20854474859367        7.21976872222182        9.37508443715095
C            0.92081987569101        6.00361557693443        9.45178038972105
C            0.30984395347199       -5.81970844959291        9.78760272806337
C            0.99458553496238       -4.58600503046701        9.80296032152721
C            0.25602898778873       -3.43845665022636        9.77380778316919
C           -1.16172489589765       -3.46051798727691        9.73031654544025
C           -1.85040654744478       -4.63848394828463        9.71707010616616
C           -1.11591816733830       -5.84505271844617        9.74416056438465
C            6.05758767077972        1.40215418184195        9.63432167616802
C            4.84755620802873        2.12173636435945        9.62778706009939
C            3.66730080834657        1.42758687805415        9.66971110470910
C            3.66013321695700        0.00356644014288        9.72209904163275
C            4.82522710263617       -0.71825451081498        9.73255570454629
C            6.04741496164713       -0.02524437989783        9.68740709359086
C           -7.01437685280164        1.35076759343433        9.34011872578464
C           -5.80523159598545        2.06808051440540        9.39514068814989
C           -4.62555803272696        1.37475753375360        9.47973765508206
C           -4.61790177140524       -0.05067024967368        9.51245478153795
C           -5.78311483993626       -0.76934663331534        9.46106898900966
C           -7.00357590798249       -0.07693879284658        9.37167383674501
C            7.30451729072666        2.06301952087721        9.58468592873951
C            7.27936878645559       -0.71393161526993        9.68761636156793
C            1.01004254879668       -7.04221916721296        9.80800057565277
C           -1.76441071272623       -7.09662403775566        9.72405553260386
C           -8.23397035781343       -0.76462546408975        9.31177228685009
C           -8.25772326468115        2.01404921339180        9.25035275345965
C           -1.89713706521687        8.44566612454351        9.28640423800126
C            0.87946176887924        8.45612585831603        9.30809950996985
C           -9.41671074148713       -0.08896320730353        9.22448161019790
C           -9.42852906661863        1.31492708309419        9.19424644098371
C           -1.21361689720872        9.62737773750210        9.22336023908833
C            0.18807982266881        9.63281904793843        9.23338762873146
C            8.46425115690967       -0.04016345866160        9.63745730922210
C            8.47599397744198        1.36306738091474        9.58506885194380
C            0.34782979087285       -8.23656908886278        9.78652581020094
C           -1.05302981778456       -8.26311772272547        9.74350021228799
H           -1.47233990921470        0.68247462602458        9.64970210450536
H            0.50806332554508        0.74042709298271        9.70475889739453
H           -3.00136891081489        5.98033408052372        9.40793582744501
H            1.99953316424073        5.99996517346277        9.46223238792378
H            2.07281987565233       -4.55403797316434        9.83349602805230
H           -2.92849871845124       -4.65064869564992        9.68117976564572
H            4.84671318790737        3.19915160714686        9.58645546592254
H            4.80212909137266       -1.79586966981173        9.77135405965784
H           -5.80697146868913        3.14671553591107        9.36983645507748
H           -5.76378566491974       -1.84720653878956        9.48500104794683
H            7.31020587854704        3.14286787943962        9.54446237961387
H            7.26133808730438       -1.79289529419073        9.72786213220047
H            2.08944900550894       -7.01356508985981        9.84091895751440
H           -2.84482409890916       -7.11383594249684        9.69086466833126
H           -8.21742854474277       -1.84423918293055        9.33516023530582
H           -8.26264649738914        3.09447906270229        9.22728292057379
H           -2.97814637875109        8.43750750780265        9.27795423298230
H            1.95977387237668        8.45368812932379        9.31667277831021
H            0.89691030169358       -9.16593492031883        9.80092435681070
H           -1.56347583946242       -9.21482102876448        9.72627051869887
H          -10.35180436591366       -0.62742814978111        9.17817645161752
H          -10.37289558609672        1.83517608811507        9.12565246834927
H           -1.74808664168824       10.56470259274402        9.16460642989985
H            0.71589689263790       10.57393178128702        9.18180720280726
H            9.42265478967875        1.88115231453262        9.54527788375366
H            9.39990241731857       -0.57833791228473        9.63651448663686
C           -0.32179788110439        6.35889241549540       12.56883780157993
C           -0.27630565262089        3.97964208637201       12.66706524632892
C            1.14185926433860        3.99710692708027       12.68943677584588
C            1.53788431713592        2.59639993414989       12.74651139106461
N            0.45505294109058        1.78937507274870       12.75725067389918
C           -0.64179071711358        2.57307339521227       12.71057563643491
C           -2.31048155011621        0.96378925826466       12.71762011927246
N           -1.55839284450357       -0.17568099605108       12.77706302980732
C           -2.32405436526951       -1.30795075161836       12.77760041976325
N           -1.90986720599444        2.20123587692021       12.69133618640038
C           -0.64261707770499       -2.89623914163091       12.86521993385171
N            0.44349776975845       -2.09637269517446       12.87423059041948
C            1.54006549713059       -2.88447703075624       12.91694013819268
N           -1.91687338639858       -2.54259945160431       12.81934877669518
C            3.21412079279156       -1.27795416932844       12.89101559778924
N            2.45541970923131       -0.14062587893885       12.85214922936665
C            3.21201587117257        0.99698704074389       12.81782499102957
N            2.80896040132166        2.23565933048916       12.77224895204893
N            2.80852506521119       -2.51455851226332       12.92483590980113
C           -1.01117040341087        5.12851243570128       12.60839745502276
C            1.10453146201957        6.37969436839214       12.59058652570734
C            1.83486542445060        5.17199195238709       12.65259989247810
C            1.16703301293140       -6.67881452055998       12.97803437864460
C            1.87414813266312       -5.45630990514507       12.97900245389465
C            1.16211029010833       -4.29208480157665       12.94039007536944
C           -0.25647143694315       -4.29860254871380       12.90345608548553
C           -0.96803270075325       -5.46252685401389       12.90113894091689
C           -0.25859205844427       -6.68236594862460       12.93682866800070
C            6.98075414542449        0.58972904129965       12.82875281961754
C            5.76065374515480        1.28804674228317       12.80918389283896
C            4.59062009587622        0.57560258265674       12.83418629977401
C            4.59333513010736       -0.84944100421092       12.88063092878999
C            5.77259417437799       -1.54848762883965       12.90076783518913
C            6.98636740044622       -0.83758997078217       12.87517528056968
C           -6.07637234415014        0.57612329961327       12.57062790015611
C           -4.85384173647380        1.26928645675425       12.60755578963859
C           -3.69098676652087        0.54703722338163       12.67674481451585
C           -3.70139245127030       -0.87757465147784       12.71316868591620
C           -4.88183538220172       -1.57181046079281       12.67887926724723
C           -6.08941613359678       -0.85179787074422       12.60560746577609
C            8.21609063578336        1.27084451282932       12.80376014798929
C            8.22961437982813       -1.50702289009777       12.89364054243839
C            1.84380295585181       -7.91476390786729       13.01439805987073
C           -0.93172248870175       -7.91923135667815       12.93185716516345
C           -7.33635186773028       -1.51300194889970       12.56284337387314
C           -7.30597164515543        1.26487942534089       12.49555478089626
C           -1.01752301896035        7.58257577959820       12.50521504643595
C            1.75810142418386        7.62811792073386       12.54723520655299
C           -8.50544331858088       -0.81293294166262       12.48920146939396
C           -8.49108744734869        0.59078664604717       12.45583212242594
C           -0.35049678801894        8.77361039595050       12.46458235220176
C            1.05106167973342        8.79568162671301       12.48546851265311
C            9.40513673511407       -0.81415755973780       12.86845722094568
C            9.39858623073734        0.58943053307954       12.82288252197687
C            1.15809239738206       -9.09696884619582       13.00882705132472
C           -0.24288891232460       -9.09940377257413       12.96638058151047
H           -0.54266537830086       -0.19387443457486       12.81455354367633
H            1.43891350768250       -0.14284963759919       12.84752175417955
H           -2.08979135792125        5.09979436340037       12.59139648311913
H            2.91352053745698        5.18081502722709       12.66832795467001
H            2.95321765470895       -5.44876973125146       13.00802993859162
H           -2.04636378169309       -5.45639061802614       12.87075605054546
H            5.74530961013906        2.36566109059249       12.77357075227203
H            5.77045295766512       -2.62687791730434       12.93541825754088
H           -4.82862346362913        2.34722149006375       12.58013099339566
H           -4.88265458190323       -2.64968951883832       12.70517984508457
H            8.20356866149050        2.35022704512417       12.76856272527833
H            8.23043798887006       -2.58713188895030       12.92897570335850
H            2.92442693190684       -7.90887553913994       13.04677621621357
H           -2.01152978074550       -7.91445279405510       12.89959307485532
H           -7.34379630151407       -2.59325139650683       12.58914922400198
H           -7.28591707410189        2.34426047266436       12.46992611327964
H           -2.09737479978246        7.55735223379352       12.48925791837412
H            2.83900135144830        7.64189285126577       12.56371405155203
H            1.69050936458005      -10.03691221639110       13.03685686596576
H           -0.77248226856000      -10.04090415395825       12.96172821446038
H           -9.45222246648734       -1.33124710945427       12.45642024912402
H           -9.42487213496850        1.12897792236395       12.39758475879649
H           -0.89612739341565        9.70381152652395       12.41551212647887
H            1.56544206375673        9.74489562090512       12.45254864196763
H           10.33755792997957        1.12284945662253       12.80329507573566
H           10.34934547260568       -1.33907305162417       12.88330697289798
C           -1.32061482596733        7.39003011436034       15.66240997515878
C           -1.32514248239575        5.00429455502303       15.73637510870347
C            0.09336259251925        5.00535686220947       15.77051044990256
C            0.47416571050688        3.60211091417327       15.82366953891296
N           -0.61524274849575        2.80654446574316       15.82195004496703
C           -1.70844841761235        3.59832548558367       15.77102427123434
C           -3.38773786032857        1.99782877850590       15.77929304181653
N           -2.63295208987597        0.85892245775337       15.83892010788746
C           -3.39245256303788       -0.27696628715480       15.84962590015555
N           -2.97822728131196        3.23321468781612       15.75010599460239
C           -1.72422736876209       -1.88171307655711       15.94978950982467
N           -0.63852662465125       -1.07874158297601       15.95569383931424
C            0.45531236616130       -1.86703209375421       16.00392100300990
N           -2.99363133999872       -1.51670671156010       15.90175905269151
C            2.12909210018370       -0.26297368619076       15.98155348961766
N            1.38039618821399        0.87896537546854       15.93455997426202
C            2.15022336649247        2.00814731877779       15.90995905234339
N            1.74735473073749        3.24400885005137       15.86150983250616
N            1.72459842160491       -1.49928550697806       16.01582759974227
C           -2.03258338977493        6.17072650682700       15.68186835127806
C            0.10516763675935        7.38816581314984       15.69731306471149
C            0.80954235797200        6.16632709999136       15.75171351940694
C            0.11878134774032       -5.65381070718757       16.08622720698166
C            0.81354359782397       -4.42560674545715       16.08055257959058
C            0.08417493729284       -3.27263958481202       16.03412356673343
C           -1.33396920269041       -3.28436105343857       15.99781688196125
C           -2.03220865063087       -4.45672850946409       16.00513672831782
C           -1.30725509983025       -5.66853748101715       16.04774998023684
C            5.91706340225890        1.53672477703027       15.96695575741406
C            4.71073820034039        2.26161254162740       15.93427695071376
C            3.52683944507597        1.57241365124237       15.94175767668865
C            3.51187993212159        0.14812700462112       15.98462162048672
C            4.67339611977963       -0.57899654148572       16.01453831504147
C            5.89927665975227        0.10896725150930       16.00601777254046
C           -7.15912983320331        1.56516516529132       15.66375025026261
C           -5.94377157554846        2.27379449506358       15.68735693448779
C           -4.76751405798822        1.57222462830830       15.74766214266386
C           -4.76933813565807        0.14688479943417       15.78930409253716
C           -5.94059405071591       -0.56345999510259       15.76517153916155
C           -7.15789542944438        0.13751425555644       15.70074458789899
C            7.16757123414598        2.19275556013405       15.96098528243700
C            7.12796578735768       -0.58504745986962       16.03357353917460
C            0.80906027011696       -6.88151450153956       16.12658156130128
C           -1.96601305055787       -6.91486477809669       16.05070094277028
C           -8.39428027496037       -0.54116469762492       15.67061737821436
C           -8.39935133484387        2.23746101367770       15.60193569848576
C           -1.99229997793601        8.62828906515642       15.60941901891844
C            0.78350183616748        8.62219484669349       15.67837638068770
C           -9.57390693867908        0.14306828784142       15.60969111397912
C           -9.57631323906339        1.54683762122519       15.57568638929524
C           -1.30170955255463        9.80744756148489       15.59283384470552
C            0.09967366656267        9.80460217437122       15.62775380308570
C            8.31647124064359        0.08405272973194       16.02623419176030
C            8.33561068916336        1.48773723187123       15.98942764569960
C            0.13715894905207       -8.07055748898370       16.12661141360138