3880
 energy: -6377.603232910003 gnorm: 0.000504242991 xtb: 6.7.0 (08769fc)
C           -1.40245746419988       -7.24293865163864        6.08076323016791
C           -2.38113925425310       -9.22021236439712        5.19363227889123
C           -3.63889599447939       -8.56420318480006        5.11518274406953
C           -4.55162062573715       -9.55719813729971        4.57073016630205
N           -3.91114075748848      -10.71486871052210        4.31056060258836
C           -2.61544647992896      -10.54933216176759        4.65089686788740
C           -1.74546696774818      -12.57563256618198        3.93205718642578
N           -2.88666355357319      -13.28091403169435        3.68898784999125
C           -2.63464606695939      -14.50668145428242        3.13476999190807
N           -1.61545828891708      -11.38482472232242        4.43930134739041
C           -4.80593403456968      -15.13468808744447        2.61941585869641
N           -5.45389701858717      -13.97852861743642        2.89912999051795
C           -6.74260425427117      -14.13010373334631        2.54123392902340
N           -3.50893453594978      -15.37806582942774        2.71630981103463
C           -7.61963704881460      -12.07190448131375        3.16636716672797
N           -6.46400075316370      -11.41803419257475        3.49703348393387
C           -6.69574095966058      -10.14985237975619        3.94361215271613
N           -5.83609212936795       -9.28577170988966        4.39947642920687
N           -7.74481413387713      -13.27446266403346        2.68764500833969
C           -1.26816273651573       -8.58778108536433        5.67079242751831
C           -2.65500335377010       -6.57207645759344        5.96591404084912
C           -3.78891769969441       -7.25546890592386        5.47783401004776
C           -7.95099290560452      -17.38528983036439        0.97726037756977
C           -8.07161246249525      -16.05425450145450        1.43698746390626
C           -6.97099891175924      -15.45066354868949        1.97246328427321
C           -5.71969615226132      -16.11600388697613        2.05352965088477
C           -5.57312136735105      -17.40369593732586        1.61434214896434
C           -6.69790155306491      -18.06071824054876        1.07367851350558
C          -10.28438713379684       -8.94597259742997        4.06387115734487
C           -8.88406007205917       -8.83637094830217        4.16484543555194
C           -8.12009474052655       -9.93566845335449        3.87640467303245
C           -8.70669062419235      -11.15652250236637        3.43142364485734
C          -10.07158433782088      -11.29426945007775        3.36624994016019
C          -10.88149094223174      -10.19508351640291        3.70952612126559
C            1.52082171416011      -14.05150010786128        2.72146872215582
C            0.68931553529777      -13.10733441958978        3.35460364583582
C           -0.64594020056910      -13.39037770892283        3.47716791611725
C           -1.20065699305246      -14.61667064258789        3.00028887240574
C           -0.39219375135039      -15.58027724467975        2.44741439991203
C            0.98071792178583      -15.30517124685916        2.29486691855759
C          -11.11195167848906       -7.83648985379708        4.31656988879382
C          -12.29104222820815      -10.28672808505594        3.73738357804841
C           -9.04838207195876      -18.05251874632299        0.40584067830191
C           -6.62375116201831      -19.39169799630685        0.61558280013555
C            1.83830519855812      -16.19590132523274        1.62040866419476
C            2.86697478685048      -13.77024278683853        2.43901781348942
C           -0.30186589562240       -6.55142060062498        6.61616760475920
C           -2.71608397760420       -5.22032520595856        6.34346849654911
C            3.13867537825854      -15.88250357595373        1.31409020598363
S            4.01479555040547      -16.98376350450725        0.22101640806172
C            4.02523493362918      -18.56661647283816        1.13323512441892
C            5.21524638875091      -18.64189144787015        2.08670256238709
N            5.34789299767489      -19.95017423198888        2.66572071237764
C            6.41048298844783      -20.74175244921116        2.41113295517172
O            7.30606381154830      -20.43900164036458        1.64883056921850
C            3.67430158059554      -14.63481956075674        1.72992022606056
S            5.26666489964399      -13.99015815174458        1.32529730545336
C            6.40078633499339      -15.41522718632624        1.43314626134900
C            7.83186199419212      -14.97878004452725        1.74012422377070
N            8.63414497335449      -16.15827882463727        1.94652599500675
C            9.35964405480645      -16.71076619590524        0.94124752779088
O            9.57931800957563      -16.13658520246660       -0.10731120241210
C           -0.39365303152007       -5.23829444725694        7.00954007454592
S            0.95050776088969       -4.37203820459418        7.75031395160310
C            2.18186728624223       -5.65524199728002        8.09249349601083
C            3.08188362836511       -6.01115123080722        6.91005892332592
N            4.04278208795822       -7.00289499191582        7.33439758090642
C            3.69991396665680       -8.30655180834389        7.43924681406180
O            2.64153571332299       -8.74665016014169        7.02539632083713
C           -1.62295805257257       -4.55317301087654        6.83580114638250
S           -1.90604439345718       -2.87397602656821        7.32498692848803
C           -0.61910675620631       -1.89610308685108        6.48388828028622
C           -0.35706356669029       -2.28862772970802        5.03629733875911
N            0.79175085562868       -1.55118459971447        4.57095476187949
C            0.69203851020181       -0.53890123639897        3.67860291200614
O           -0.31855927197740       -0.29800794357297        3.05070093497402
C          -13.07168054941184       -9.20612600074325        4.04086898253114
S          -14.83904345097835       -9.39939042642593        4.10001940304058
C          -15.06509363411510       -9.18356174173617        5.90410775005072
C          -16.53494390652076       -8.95402769033218        6.24170428185012
N          -16.68833959306967       -8.48457907964949        7.60271734319090
C          -16.32187650994976       -9.20140285828281        8.67670348705470
O          -15.83253461745137      -10.32093575854038        8.60053624909693
C          -12.48029097145407       -7.93649612466497        4.27173834694359
S          -13.53683043561512       -6.54560157883356        4.47569296572414
C          -12.45457508360039       -5.16261218683387        3.98095935650661
C          -13.30888747659753       -3.94162270358687        3.64972610952495
N          -12.51809955334064       -2.91709571692824        3.01984964288752
C          -12.68235517320739       -2.58982727676722        1.71604158441306
O          -13.55518801179121       -3.06671055579563        1.01967569032682
C           -8.94569384399436      -19.34400141704913       -0.05079663153586
S          -10.21649769589514      -20.17061797196136       -0.94675571071432
C          -11.78984284378457      -19.51370421593217       -0.31179857855709
C          -12.11071401859393      -20.10416881306368        1.05687566081917
N          -13.41268328501107      -19.68085550369630        1.50871421462849
C          -14.36559653882027      -20.56005993374525        1.87229340095394
O          -14.18208844836802      -21.76520637592859        1.89810441684372
C           -7.71210104129927      -20.02452364277722        0.08316295289644
S           -7.54253542374999      -21.70819218567662       -0.47858144817151
C           -8.54597905591144      -22.58285931893646        0.77879921725668
C           -9.71349217770480      -23.34908797549122        0.16581638556222
N          -10.70445615396947      -23.61285026859628        1.17779976202711
C          -11.45166621610398      -24.73476829609952        1.21119313303034
O          -11.31799271776063      -25.64657474985567        0.41680066839937
H           -3.82656551602326      -12.94340408187957        3.87150981276997
H           -5.53750927417161      -11.83245018976759        3.43756216447971
H           -0.31399615875499       -9.08692322685002        5.74249610299832
H           -4.73953524831275       -6.75122706927160        5.39764282473183
H           -9.00903964848878      -15.52674266199549        1.35062936189531
H           -4.62346582623690      -17.91144100210642        1.67497396814868
H           -8.42596304282245       -7.90611525048951        4.46153197468072
H          -10.52214624870693      -12.22555513271814        3.05999299913158
H            1.08821024763378      -12.16442058661777        3.69313979054782
H           -0.80672609685690      -16.50994682998287        2.08911141147769
H          -10.63221993967831       -6.89791752475587        4.54464977474941
H          -12.76699735245830      -11.23243440220278        3.52512923576478
H           -9.97227749761676      -17.50480669694621        0.30147853847930
H           -5.68933597230718      -19.92530344084231        0.69507503021848
H            1.42502993223788      -17.12915023898872        1.26428574428645
H            3.28172107605353      -12.82829101550174        2.76504770773432
H            0.60842902330992       -7.11811182989203        6.72420877288153
H           -3.65111131899073       -4.68965586504819        6.24820994617828
H            3.07980014302817      -18.68163390671218        1.66084430173343
H            4.11002862699061      -19.33333928305837        0.36373021841610
H            6.14358182786127      -18.44327805914150        1.54442917726630
H            5.09716185392615      -17.89805397277513        2.88233338253526
H            4.63520066194594      -20.25466002185778        3.32402844810097
H            6.03023792627735      -16.04417446674032        2.23964386923319
H            6.38435664472136      -15.95497196746048        0.48795775259501
H            8.25496384505629      -14.43186858152334        0.89401819142324
H            7.85607619179427      -14.34578718083415        2.63184256317168
H            8.36784456978823      -16.76173769801872        2.72138875104696
H            2.80703125058889       -5.24382297843754        8.88563638231435
H            1.66044536825678       -6.53566431394525        8.46596012755835
H            2.50491972203137       -6.42396470495156        6.07957146423348
H            3.61744578523011       -5.12346663697467        6.56888311625736
H            4.79408777807196       -6.63942128577588        7.90777719410144
H           -0.99735032448801       -0.87482450757402        6.53749984717043
H            0.31069337141446       -1.96745910030652        7.04555888108936
H           -0.15452915884335       -3.36333727200896        4.96516680975362
H           -1.20180219298048       -2.03919457217897        4.38933871044890
H            1.59411428984317       -1.57521109388571        5.18775541628027
H          -14.69340229180835      -10.08027857503421        6.39766346614029
H          -14.47578431559924       -8.32081693029413        6.20791027970597
H          -16.95414238560351       -8.19707073905638        5.57750000294639
H          -17.08968581494897       -9.88792975133486        6.10284375083311
H          -17.11210245968671       -7.56876087869603        7.72672199182038
H          -11.76324731019740       -4.94129694432542        4.79521291185740
H          -11.90272246936370       -5.48115938229122        3.09644256895104
H          -14.09521493581781       -4.21590695956902        2.93991549291134
H          -13.77367409503060       -3.55128177638147        4.56269670406533
H          -11.70563058782776       -2.56052188532397        3.51448992392988
H          -11.76028399282189      -18.42538956129685       -0.29498630790998
H          -12.52855516853904      -19.83134338705248       -1.04837662249838
H          -12.13818564160612      -21.19561147044040        0.99341350967781
H          -11.33710961964557      -19.82237974950084        1.77989525246651
H          -13.62783702857987      -18.68839017435360        1.52139422849479
H           -7.86488137281295      -23.25716563172034        1.29665352266380
H           -8.90751051626324      -21.83369058892785        1.48163719230307
H          -10.15424492660545      -22.75342302720988       -0.64388049680344
H           -9.39592114486769      -24.30642711816352       -0.25758898230891
H          -10.82024965198832      -22.90243801797443        1.89472298328016
C            6.36571543243647      -22.05488311811106        3.16838642348610
H            5.49550553764106      -22.62662083216357        2.85462184438247
H            7.26718305093589      -22.62420425582430        2.96229110092242
H            6.28492281526372      -21.86871179314388        4.23672184429788
C            9.88961333723183      -18.08319553073649        1.27944901841101
H            9.06358985049367      -18.79285395243869        1.31890019471900
H           10.59740751274506      -18.40079021275522        0.51961363865453
H           10.37010563892098      -18.07155599284171        2.25416751598606
C            4.77401125811639       -9.17883934381449        8.05214432080131
H            5.30854879832911       -8.64669868878353        8.83369352401853
H            4.33247368587549      -10.08475483748705        8.46066851789955
H            5.48258027031031       -9.46370588033124        7.27639102632665
C            1.99026540388703        0.22315707178743        3.50445250474828
H            2.72561235146143       -0.42017197956715        3.02635045347634
H            1.81989892990220        1.09471148797621        2.87950715389009
H            2.37361636648272        0.52960951337759        4.47445282944122
C          -11.71000799981546       -1.53612173666466        1.23301757406268
H          -10.76806571305558       -1.59955794825377        1.76935589131252
H          -11.54767583581373       -1.65623590280303        0.16571720664361
H          -12.14830318749863       -0.55422104492524        1.40382956989412
C          -16.54503315709703       -8.49752326825972        9.99492359158076
H          -16.72600825330215       -9.22076255938123       10.78669808405948
H          -15.63762523944653       -7.94917592833588       10.24422537311786
H          -17.37432882486481       -7.79976343084836        9.92670467202582
C          -15.67267232120142      -19.92054116767285        2.28529689148179
H          -16.49691272116072      -20.47814137770534        1.84832689250762
H          -15.76590619187863      -19.98139747493790        3.36835129394988
H          -15.71905234316981      -18.88094053598966        1.97686777447678
C          -12.47624338399338      -24.72627667719970        2.32395110557579
H          -13.01313367368052      -25.66997938117439        2.33287189690433
H          -11.98522919458788      -24.57364886526502        3.28225353542412
H          -13.17898729258630      -23.91093003980376        2.16021594363255
C           -0.52587345788894       -5.81473744900623       10.38431381764424
C           -1.60869751365011       -7.67166655729396        9.35336729731227
C           -2.79673078153832       -6.90532351535921        9.22147626353355
C           -3.76181916495399       -7.80023902676310        8.60330735683051
N           -3.21325514075049       -9.00298208873789        8.35077036664563
C           -1.92080439605592       -8.95446639876172        8.73892640927867
C           -1.21811994750166      -11.00231043714108        7.92542528279204
N           -2.42523011104719      -11.60289146944400        7.70756986876676
C           -2.29393201951610      -12.84536166145097        7.15621362407252
N           -0.98658959860695       -9.85316897738950        8.49196043082906
C           -4.50979118274963      -13.31669823567568        6.66717525852623
N           -5.06237953794047      -12.11266467511528        6.93471350261740
C           -6.36248484921777      -12.17268936066281        6.59214588016133
N           -3.23239916057657      -13.65299116018493        6.75408744882422
C           -7.02477030652096      -10.02276621131167        7.13653433121149
N           -5.82119597207675       -9.49895659059068        7.51336713684912
C           -5.91790180191166       -8.18193831439444        7.86137711321222
N           -4.99916370338532       -7.40339428679948        8.35375346249632
N           -7.27777228635009      -11.22175748265756        6.69766302334688
C           -0.48880836512273       -7.15722917919790        9.94418081172869
C           -1.69979565675140       -5.02902860647312       10.18934238410248
C           -2.85355252926919       -5.59832332120922        9.61103862991808
C           -7.82367887320606      -15.35693200557362        5.10106263343348
C           -7.84919780864144      -14.01772620114137        5.55112257902827
C           -6.70204718222426      -13.48608582679327        6.06379041094816
C           -5.49966970716167      -14.23813550101855        6.13483678500442
C           -5.45330381608963      -15.54520158256452        5.73078828619998
C           -6.62970677964015      -16.12944179818330        5.22152149436999
C           -9.32297212488971       -6.55508304134303        7.65750068873429
C           -7.92780112798200       -6.59348814463447        7.81804917052379
C           -7.29337771162481       -7.79990352655335        7.67432090792659
C           -8.00314068051922       -8.97333356958253        7.28697102661926
C           -9.36993436160531       -8.96891850313262        7.18446286058451
C          -10.05201165765875       -7.75996859572418        7.42430919777223
C            1.86145700108618      -12.80032620688236        6.65527398529943
C            1.14320748877112      -11.74438199112453        7.24667392175232
C           -0.20675691477867      -11.90270712094749        7.43071878528886
C           -0.87945032370227      -13.08375928304857        6.99893833906753
C           -0.18965657742480      -14.14188086381631        6.46852067270948
C            1.20201138799417      -14.01708376301459        6.30140951944456
C          -10.03827309740593       -5.34581789931516        7.73461322826564
C          -11.45027016777399       -7.69384326723913        7.51392364018239
C           -8.96934250212737      -15.93926679139288        4.53259018328789
C           -6.65853682246855      -17.47598297382484        4.80240789859162
C            1.95514958992048      -15.05273382705649        5.71805516763733
C            3.23574290705338      -12.68001265870041        6.37029852163800
C            0.57298920271236       -5.22519279806660       11.03781193469469
C           -1.67510407748957       -3.68018947642021       10.57758795748480
C            3.29647697734038      -14.91731921629217        5.47375121606374
S            4.20498070317213      -16.21577782167305        4.69482845867629
C            3.53212358671814      -17.71116093477389        5.50416031788691
C            4.68569090653249      -18.56277552440407        6.03434553896731
N            4.20108931631643      -19.79118715012297        6.62646614941797
C            3.65069917130294      -20.77407857270299        5.89993238278635
O            3.47711645016452      -20.69171712219875        4.69029560039220
C            3.94413364973067      -13.69884412012604        5.79231274969667
S            5.64783819493774      -13.40719136075470        5.39622285949476
C            6.48461707613944      -14.70848576575941        6.38573344830890
C            7.45837034122102      -15.49216661780964        5.51954967150367
N            7.76874209435962      -16.78631783356144        6.08510910865223
C            7.86649596557710      -17.88051998286386        5.30898305286971
O            7.76569557296241      -17.83452291880727        4.09212983247401
C            0.56417371532724       -3.91258161742965       11.43479767626500
S            1.85983101988808       -3.22309809356726       12.42344644840439
C            3.41994570265247       -3.96184805467005       11.84436245980285
C            4.06239556419615       -3.12719529547317       10.73575116475282
N            5.46444672493152       -3.45065170518532       10.60848225118007
C            5.90575892143754       -4.54524863275937        9.96656767549444
O            5.17450472326028       -5.28383658403613        9.32283148891984
C           -0.57331999563322       -3.11343980742541       11.16655220886006
S           -0.74267918615698       -1.41379054650117       11.63713916273093
C            0.73703613138780       -0.57567103375835       10.97187130232115
C            1.05933284620242       -0.94250499211916        9.53595106031288
N            2.39950791340499       -0.48087945462363        9.23070342395576
C            2.98244636430192       -0.63560598028729        8.03310209027517
O            2.40632206189884       -1.08756977517885        7.05557496047654
C          -12.13406679831537       -6.51620033641358        7.73886519707796
S          -13.79750036425549       -6.83839451731163        8.22821748215348
C          -14.83153410529458       -5.35471664648881        8.34930621025089
C          -15.46546625543985       -4.95043819012482        7.02020304013736
N          -16.63839316460562       -4.14183550978705        7.24485985516567
C          -17.81042741458707       -4.69608955539245        7.60066731683176
O          -17.97180296463506       -5.90542839202494        7.69917004804053
C          -11.41051236613971       -5.29138457709427        7.70812413600945
S          -12.23987402494590       -3.73549437037925        7.58746349409374
C          -10.90982391258726       -2.58752636513655        7.10820860189036
C          -11.50481381520122       -1.30991263376273        6.51547095359062
N          -10.45730536849716       -0.47525915503773        5.97529349536305
C           -9.83414578138195       -0.79681419944379        4.82765761976584
O          -10.14510709666429       -1.78317369892127        4.17137400867035
C           -8.96362321849080      -17.24637851327971        4.11732144607297
S          -10.30897592375259      -18.10173160187269        3.39078498718002
C          -11.51923183884847      -16.80958646591568        2.95163820609793
C          -12.66333971790297      -16.75825324203476        3.96128651133212
N          -13.66757238038089      -15.79133222208544        3.57397020851220
C          -14.41447868019130      -15.95081558046236        2.47082604599107
O          -14.26370407374387      -16.89342264769701        1.70037010388116
C           -7.79503157141359      -18.02521238655319        4.28572846894270
S           -7.86078274853661      -19.72789062202296        3.77962850414976
C           -7.75565736330911      -20.55179121746939        5.42287599728449
C           -8.54942845667596      -21.85887223174423        5.40915314107312
N           -9.97447998602881      -21.65587819970964        5.48467338299076
C          -10.75650047464739      -21.61384497866916        4.39377756110638
O          -10.31585404933116      -21.74009338544132        3.25972547220097
H           -3.32087019789565      -11.17906420517059        7.92538817472701
H           -4.95008814605096      -10.02240189612241        7.51547987381229
H            0.39519539982201       -7.76228114521396       10.08089604648334
H           -3.74615536208734       -5.00665534406419        9.48414785150601
H           -8.75021085970691      -13.42995769505675        5.47048799293511
H           -4.54131959090228      -16.11914921048694        5.79076960428972
H           -7.37475364619196       -5.70058359993634        8.06483775212866
H           -9.91657943741558       -9.86861192417500        6.95084316774232
H            1.63599875178230      -10.81710509070548        7.49650712396181
H           -0.70226860823614      -15.03780632699604        6.15236645734963
H           -9.45693104425084       -4.44437850325636        7.83917213072104
H          -12.01863673345080       -8.61136674284365        7.46689879482408
H           -9.84984342141642      -15.32434686430819        4.44838471476025
H           -5.76578459331216      -18.07515578145368        4.89680082732443
H            1.43657067856666      -15.95342566202614        5.42229394232787
H            3.73730916884148      -11.75549981063201        6.60894024770923
H            1.42418520234318       -5.85603621747991       11.24852538499680
H           -2.54593383544050       -3.06958121375115       10.39809054145898
H            2.88764163535839      -17.38383720547031        6.31651863534226
H            2.95708858369174      -18.27424187381235        4.76914243413372
H            5.35753377485334      -18.79956792844743        5.20305770327551
H            5.24315741887646      -18.01632721060409        6.79570410696641
H            4.33664816477433      -19.93112091609527        7.62399347351316
H            6.99234744845216      -14.19171129449914        7.19922243077380
H            5.70858851858184      -15.35299035896842        6.79115417785627
H            7.01432033863098      -15.67284071459454        4.53623659542596
H            8.37868302972815      -14.91270983101322        5.37649878368806
H            7.68161589404074      -16.91092453967672        7.08672056430751
H            4.07250706609387       -3.95117683864363       12.71893492851481
H            3.25769777227796       -4.99235369821456       11.53732776197185
H            3.56292930454818       -3.30858667632519        9.78039609974089
H            3.98258446667431       -2.06862050549609       10.99036501563873
H            6.06926794803787       -3.01401881296722       11.29565013033856
H            0.49154840227671        0.48232537645244       11.05972183851934
H            1.58754511900576       -0.79869469512330       11.61194583002383
H            1.00278402445038       -2.03049723060195        9.39583761068547
H            0.34526668276312       -0.48293268628299        8.84553652816294
H            2.95566049824834       -0.17672512123178       10.02117310557048
H          -15.61939189433408       -5.67779978933826        9.03206694081971
H          -14.26815550746803       -4.55294380278213        8.81685356969034
H          -14.75554126772655       -4.39186364992198        6.41082404927822
H          -15.76824580171316       -5.85072244800403        6.47739120522788
H          -16.52253705664564       -3.14087414555215        7.35606151283525
H          -10.30733756481570       -2.35908574922757        7.98905586290280
H          -10.30144514400751       -3.07556355751245        6.34625104348288
H          -12.19167473536569       -1.57933970273865        5.70628523738665
H          -12.05403766221775       -0.74731698200892        7.27075449551630
H          -10.07694586241102        0.27402117957145        6.54306576921079
H          -11.01101412829090      -15.85289454588235        2.86114807017820
H          -11.91526896931975      -17.09835876281330        1.97917861789843
H          -13.11561894623477      -17.75665738113260        4.01600797993072
H          -12.27551780208051      -16.49133561279284        4.94472540360743
H          -13.88612139422451      -15.02065664467682        4.20530366003380
H           -6.70416792411711      -20.75390841146851        5.62425396547670
H           -8.14410916778172      -19.85260694319780        6.16181048646064
H           -8.33329705344473      -22.39500097427365        4.47928913769554
H           -8.23774330756157      -22.46995436112735        6.26037887204590
H          -10.40868306625831      -21.61895620638036        6.40539114776487
C            3.23292322256746      -21.98750017153377        6.69650422868239
H            2.19207537372169      -21.86961329297866        6.99464685009560
H            3.30892216452695      -22.87396284827833        6.07269554730294
H            3.84620651993060      -22.09464513935949        7.58581437016672
C            8.15708106276954      -19.15569468615219        6.06100333866267
H            7.93274507260633      -20.00899409480878        5.42742955191494
H            9.21674154765790      -19.18031090524319        6.30933299908033
H            7.58130094196625      -19.19738235148094        6.98085957715207
C            7.40095247888652       -4.74909989682318       10.06049778072346
H            7.75658597375911       -4.51193284003329       11.05909238795790
H            7.65101702676204       -5.77587572387931        9.80780888407895
H            7.89250134008081       -4.08712952718917        9.35010689543703
C            4.42810852682531       -0.18576941068001        8.00237909675708
H            5.02580997532264       -0.85263338154376        8.62017699647626
H            4.79943722775960       -0.21475941118469        6.98192790910910
H            4.51657309137975        0.82304270165357        8.39665071445203
C           -8.75675482987420        0.16394575048924        4.40098736332322
H           -8.44660892987785        0.79417592542000        5.22815252200141
H           -7.90899864504336       -0.38999030618180        4.00553222758884
H           -9.14825041796829        0.78988530917275        3.60089101501808
C          -18.92217862191233       -3.70174773612936        7.82410288693981
H          -19.45793548067154       -3.56544885451773        6.88646616608724
H          -19.62018925106572       -4.08966525775884        8.56101836196986
H          -18.52227352886392       -2.74375929412860        8.14139518728442
C          -15.43751120567904      -14.86821585299677        2.23937294988665
H          -15.14909632156363      -14.29020776867684        1.36331318799248
H          -16.40179195855281      -15.32510076463675        2.02962821818773