1124
 energy: -1627.968641360939 gnorm: 0.000493382717 xtb: 6.6.1 (8d0f1dd)
C           -5.03201843476226       -3.20171377563691       19.16313335713498
C           -3.24039771160880       -1.75111939315549       19.78112814173399
C           -2.32926071163384       -2.83784668749435       19.73009267320483
C           -1.02546376450295       -2.25917667665878       20.02927545085428
N           -1.13428802374395       -0.92921333938824       20.24885194620215
C           -2.43623154208254       -0.58925152949654       20.13956258542514
C           -2.37223223769690        1.67947177293050       20.67192587427897
N           -1.02665311608108        1.87762254153151       20.81034658764145
C           -0.71944288549461        3.16493810542212       21.14867743754403
N           -2.99984748105710        0.58986536951848       20.33305645748436
C            1.57535804027145        2.99874312988377       21.22356036908654
N            1.67543997538164        1.67404692647743       20.98864064755794
C            2.98313004027612        1.36512080993639       20.92989875238183
N            0.45833478012228        3.69754320878309       21.32616821466483
C            2.88072462342185       -0.92550437706370       20.54898388021160
N            1.54232363737479       -1.16697714426424       20.45878358215072
C            1.26295485994130       -2.49023708368897       20.23595673834294
N            0.07771297366152       -2.99469901364365       20.03501152828327
N            3.53302259791055        0.18431432789904       20.73231316887493
C           -4.56949783853668       -1.91413889476741       19.50991432566953
C           -4.11919902374726       -4.29856425941374       19.12984502721513
C           -2.75404685200084       -4.10118768827792       19.42353442048451
C            5.64156005188625        4.03099516707681       21.42404402630433
C            5.15883913025733        2.73239533578795       21.16493218286726
C            3.80747157350988        2.54585880521176       21.13113310873442
C            2.89252081669001        3.60978115980108       21.34384548897377
C            3.33283933407850        4.87665413221374       21.60741967769771
C            4.72514045499243        5.09927661244975       21.65782826438328
C            4.26619340691449       -4.84492885042038       20.05171449403759
C            2.89493754661965       -4.50806088104565       20.05852555616966
C            2.53215964457580       -3.18994248047226       20.20705287223979
C            3.53458099687862       -2.19338320993625       20.38464487800231
C            4.87021247199708       -2.48862227774541       20.38151605811323
C            5.25260040979262       -3.82091388351983       20.19363947542750
C           -4.60915162263943        4.70011884297325       21.22683155484541
C           -4.31652623808456        3.35491090350449       20.93975104561985
C           -3.00429579289158        2.95201811695564       20.94051729973670
C           -1.96428216746896        3.87882841733171       21.24083695623110
C           -2.22672369169804        5.18792683812724       21.54837818955877
C           -3.56230653906345        5.62021512056701       21.54248125792351
C            4.70470341117585       -6.17873784836952       19.88908774202974
C            6.61542922706318       -4.16001200212045       20.08370984338839
C            7.02670975107652        4.28101473665354       21.47857975090840
C            5.25576742741533        6.37138464372091       21.94897145240851
C           -3.87963632337585        6.96839864032045       21.80711411233481
C           -5.93500907965321        5.18823635408956       21.20422143313091
C           -6.38142731972627       -3.41486544401523       18.80976956939600
C           -4.61250838443605       -5.56933384997525       18.76404759620633
C           -5.17070768308993        7.41687530946293       21.75091567762862
S           -5.61683036892208        9.10673314362727       21.97229201082497
C           -4.30167474192061        9.71240071090998       23.08540306496297
C           -4.65819314516018       11.09704627471246       23.62251654433032
N           -4.13914945373685       12.15876598100302       22.79450699948023
C           -2.85326606109148       12.56436669620523       22.95058138359862
C           -2.34578223294720       13.60354877708097       22.03403224876588
O           -2.15979282113837       12.11011865668004       23.85445828030999
C           -3.17366817169410       14.41472149366160       21.25963712191649
C           -2.62089119202374       15.44415279424963       20.51611823403038
C           -1.22971537923654       15.67792633104148       20.53570557514264
C           -0.39127214160479       14.79182046927026       21.23829892928675
C           -0.96651069632293       13.78579811590403       22.00010328452063
C           -6.20874433608119        6.50005895443693       21.45483612376476
S           -7.89844068382314        7.06112517146305       21.47126378681526
C           -8.11136184152775        7.08656481154362       23.29860284290683
C           -8.52634954930366        8.45556263600389       23.82227568243079
N           -9.90008918567450        8.77306838162671       23.52709751429521
C          -10.91994955821171        8.22689424744401       24.22614452922635
C          -12.27685769920132        8.64216884603801       23.79530007795520
O          -10.72778321102125        7.45907352989263       25.15997467183837
C          -13.34663694649842        7.83881892670064       24.13733993717774
C          -14.65208043304398        8.16734416168909       23.77738047510288
C          -14.89105097555452        9.34686232394872       23.05582969436226
C          -13.79249134895041       10.16596537741612       22.71004226627619
C          -12.50581920031621        9.81269688260630       23.07880642164445
C           -6.82632636437863       -4.65480182685262       18.43597764838472
S           -8.44858334738895       -5.04933797438745       17.87779380840728
C           -9.47081513144448       -3.57614589885126       18.21826938657495
C          -10.90746128279177       -4.07293475725632       18.38945419201242
N          -11.86862262542775       -2.99764991262995       18.43136475911091
C          -12.20906472433980       -2.37095310801616       19.58183905211079
C          -13.23728365895957       -1.31043974250964       19.42176997160230
O          -11.73607209901391       -2.68621866329926       20.65968636403355
C          -14.42466665075959       -1.60464583082772       18.78124058345448
C          -15.46772846669379       -0.68095040717486       18.73905433587026
C          -15.28901580838524        0.58867294838272       19.30470264731976
C          -14.03983620352786        0.90601998354818       19.88256608862106
C          -13.04037346668424       -0.05035041200287       19.97079442079164
C           -5.92252788288075       -5.74487500584114       18.42781020936053
S           -6.51538129616146       -7.32434741562951       17.87078712116423
C           -7.63873432319162       -7.77943557986662       19.24996804468954
C           -7.18538359211314       -9.06791437314561       19.92784830387546
N           -8.10374824578535      -10.14980090275886       19.66998273117832
C           -8.47965753171889      -11.02974076490041       20.61641071019912
C           -9.41291855050048      -12.08235559655191       20.13777789523832
O           -8.06488227096897      -10.97041423454977       21.76525136427340
C           -9.23469248420920      -13.38309365251458       20.56060807135678
C          -10.04914459540865      -14.41400339026923       20.09284998121857
C          -11.09232125212561      -14.12203285332998       19.20216838611934
C          -11.27781625050329      -12.78457464060534       18.78649149387746
C          -10.44139824035069      -11.78200532800169       19.25158771174909
C            7.00053470614744       -5.44660861665654       19.87253502385594
S            8.70889587896379       -5.82180577594982       19.58354692796788
C            9.40926578002000       -5.35555706714832       21.22018772837867
C           10.87482274085689       -5.77171878997895       21.29014639949627
N           11.03993647506340       -7.13215278005862       20.83544391276729
C           10.91732865503860       -8.19622850893754       21.66492773567453
C           10.62476975165431       -9.46495305422917       20.94057209584503
O           11.07153648406418       -8.13342669883735       22.87164569067714
C            9.57601268368829      -10.25220845484007       21.36158151524495
C            9.25847377687730      -11.43978511228775       20.69891644040943
C           10.03321564496670      -11.84894772910146       19.60535133823237
C           11.09287409976200      -11.02335456822083       19.17182075632276
C           11.37922924377215       -9.84050493413600       19.83297621667475
C            6.04024864422195       -6.48954666603849       19.80939545409494
S            6.72473360595981       -8.09749149242613       19.63422087644262
C            5.26547883570429       -9.18431295489720       19.52785873191142
C            5.76345486378601      -10.62748762623296       19.57439561564061
N            4.72957440457986      -11.57631208840718       19.20569456685923
C            3.56649445341078      -11.67402557695451       19.88193080859180
C            2.58936270518286      -12.67016936844932       19.37249855138245
O            3.32180055387686      -10.97467113104117       20.85384557656077
C            1.25218416967688      -12.32973055465397       19.39832171732289
C            0.27197978902095      -13.18924488908625       18.89726937383896
C            0.65740728377798      -14.43854094381702       18.38425365183545
C            2.01972684688709      -14.80928918436279       18.43717197912169
C            2.97709797249803      -13.92420663705139       18.90912612951397
C            7.51611081732088        5.52766155886704       21.76420753217567
S            9.22614599961339        5.93063588499968       21.88902017150956
C           10.07171790511234        4.37584936228070       21.44968831879720
C           11.56113367005741        4.67458820796978       21.39025814896979
N           12.31414854994041        3.52973968862666       20.92332537486607
C           13.58517506278658        3.29936983769619       21.31372949765613
C           14.31079369140932        2.24900399907061       20.55222215570406
O           14.12343199702380        3.93592267076023       22.20841984653088
C           13.81436485734096        0.98337264394935       20.31751170690834
C           14.57331458621829        0.03472575676556       19.62434558022608
C           15.82904223127518        0.39718896842774       19.10607435100462
C           16.30544124506870        1.70722802054297       19.32038377643081
C           15.56549361379316        2.60441234645749       20.06968029787298
C            6.60455258248306        6.58489537569219       22.00074288764407
S            7.19744263781203        8.18260534992381       22.48845285995144
C            8.14722738980072        8.75963619461257       21.02784810317439
C            7.74643935933194       10.19718225830139       20.67092736603275
N            8.89804900819543       11.04710160083403       20.52368296256881
C            9.24970403498102       11.94931647940313       21.47589462891087
C           10.54278105409939       12.63971441053757       21.24365704024855
O            8.52600313779493       12.19914161372824       22.42329004524040
C           11.59280866763492       12.07621762738484       20.54232296079578
C           12.79881302157746       12.75646084304399       20.38747518780057
C           12.95466401750903       14.03954698748723       20.93315204596228
C           11.86621480016316       14.62038077374996       21.61850419659726
C           10.69094685036240       13.91087333237641       21.78756404863565
O            0.94534348609974       14.96593979265105       21.09171383808343
C            5.71600252052501       13.99401951506193       21.46535876839908
C            4.31541563099545       13.54307602284754       21.86211198178356
C            3.25092832651126       14.51787199336869       21.36509215260982
C            1.83787466808757       14.05289526546702       21.70065851280780
O           -0.80188943824098       16.74816582347726       19.82911542766616
C            0.99197107295766       21.30508386631589       20.08607637179634
C            1.20555039887942       19.84418338190485       20.46316787588636
C            0.09456442253227       18.95098236578481       19.92108106413131
C            0.31380615720277       17.49283051259258       20.31391246791518
O           -3.33823123241207       16.31174190591098       19.74928963572478
C           -7.13492888004653       17.75527919196884       17.01840628653411
C           -6.66091863933728       16.79784741418586       18.10441480792213
C           -5.17828947255169       16.98802283765449       18.41014816334096
C           -4.69302493414410       16.02224938744062       19.48580351477741
O          -14.07297947984161       11.28336842911579       21.98184526587120
C          -13.31471592142191       15.84309183122370       20.36839588156034
C          -12.67292917158905       14.60049313609453       20.97263178911855
C          -13.67599271929943       13.45925038536070       21.11060907619454
C          -13.04536353520802       12.23214346561628       21.76230422602779
O          -16.17461912035419        9.64934287160684       22.66570654642289
C          -20.22129269600137       12.35078557413257       23.34945555444217
C          -18.70795890599759       12.36703996732454       23.17414156208760
C          -18.15059780262326       10.96190752748713       22.96487133462222
C          -16.63211045027246       10.98585709382382       22.81694710968042
O          -15.56961984115154        7.25212505104886       24.18527220557193
C          -19.91700247056477        5.29298244039535       25.29658542854559
C          -19.18896318274639        6.44444183889124       24.61519569545222
C          -17.67363975537116        6.28452884823511       24.69776616856944
C          -16.96188036421742        7.46703315915554       24.04825851853596
O          -13.89363585822821        2.18699304101472       20.30994971070387
C          -11.53333612413351        6.34126797815823       21.19087336067410
C          -11.39409368424762        4.82521485895345       21.15376319855004
C          -12.74113045040613        4.15817395279055       20.89782196405812
C          -12.61521707967372        2.65152673357240       20.70070006574883
O          -16.30188744433962        1.50570190978163       19.21423043410030
C          -19.94939528139803        3.69824840050852       21.65176068627173
C          -18.43809981985682        3.58005859387521       21.49403922177990
C          -18.07266784736797        2.56464195062438       20.41620271700349
C          -16.56136667313006        2.37616167000381       20.31192134608809
O          -16.57242372337779       -1.14503321656701       18.09091860945898
C          -21.29271738937212       -1.71770102201181       16.96136013581995
C          -20.26624644624810       -0.82747095806488       17.65056368670609
C          -18.85085845753004       -1.37221040615144       17.48733086190195
C          -17.82293312784148       -0.48459399137888       18.18173094591636
O          -12.27685378149888      -12.55845665279227       17.88773628811657
C          -16.07783247659123      -10.00890228119510       16.16241322897203
C          -14.72922925979837       -9.93674017571234       16.86758639929603
C          -14.03943008079684      -11.29649593242699       16.91006023228366
C          -12.72661595392557      -11.23022015268245       17.68505097694365
O          -11.87471469053992      -15.14986046513610       18.72684734241123
C          -16.17780680719757      -17.51667108520139       18.84042874217444
C          -15.48253621976697      -16.16736585158323       18.70959794663454
C          -13.96385720434082      -16.30850096304900       18.75596022656604
C          -13.27781765841242      -14.95086136736360       18.63448655294879
O           -9.70254289952772      -15.63212427383918       20.58522430066812
C           -9.50852423821878      -20.46255449749236       21.26233145706490
C          -10.28496551496636      -19.31906808403012       20.62098438964255
C           -9.61263562038123      -17.97411819703492       20.87699983682496
C          -10.37537062534577      -16.82444643347780       20.22501820796886
O           11.78158702955601      -11.45226497164117       18.07286420192188
C           15.08234266685993      -11.23506630607721       14.46478733926689
C           14.47625241012470      -10.50908571343117       15.65912143228744
C           13.37960214494366      -11.33760077160576       16.32225097074038
C           12.78403132431572      -10.61946685528432       17.52850406623554
O            9.71012385563391      -13.00279219536378       18.93123570063064
C           10.51495490426453      -17.73827053858368       17.96101683523075
C           11.13963390762011      -16.35155975183702       18.06071710810695
C           10.15180799554687      -15.32802861999721       18.61282175012588
C           10.75862625631459      -13.92899818192994       18.66670861910093
O            8.16323578305110      -12.05469830655472       21.20030862057794
C            4.89723736466648      -15.48902876601317       22.26837048031982
C            6.10026382881975      -15.15270343373617       21.39864474466266
C            6.56810970465868      -13.72741329227956       21.66174332148514
C            7.78019131802578      -13.36183446399441       20.81372815796060
O            2.32101436284707      -16.05544097111845       17.96832332110512
C            5.06572317270628      -20.06820127238646       17.38123003544025
C            5.05316468569716      -18.60213563612461       17.79477438211744
C            3.66415408015700      -17.98814242814532       17.64442635935916
C            3.64540659132373      -16.52890518585768       18.08591281930268
O           -0.27237992626183      -15.23577656706168       17.76529881344456
C           -3.39695920850167      -19.02613046683132       17.73661691744174
C           -2.04163154575719      -18.51298812446971       18.20667156535485
C           -1.79242492351787      -17.07893066282304       17.74794342232159
C           -0.45147743901217      -16.56096966270920       18.25527770365841
O           -0.97252195716530      -12.67668058707123       18.93577483457265
C           -5.87160063337180      -12.63204016239219       19.14169206065956
C           -4.62566951568343      -13.45850204803848       18.85192918813229
C           -3.34884955388827      -12.64671856329319       19.05136815359983
C           -2.12016813755152      -13.48701903682670       18.72453839848335
O           17.49442663865030        2.03293907549014       18.73501810169203
C           21.14374576853175        4.98446109085081       17.33165526832228
C           19.84351741628831        4.87565622476308       18.11793189242297
C           19.24134502944498        3.47675897656815       18.01909337432724
C           17.94400793636586        3.37059007446054       18.81281573362050
O           16.53313944564752       -0.49710579323406       18.34434144664424
C           20.24958544934118       -3.68033708920137       17.95420107135632
C           19.83993691757039       -2.26319558624110       18.33576556233144
C           18.33114478118691       -2.06264251671087       18.22850018684017
C           17.92959251391272       -0.63447668938159       18.58291265800183
O           13.95684066704601       -1.16162944973768       19.48431881090067
C           13.55533852361653       -6.00365757554473       18.63945014868089
C           14.43611112233908       -4.76042882936255       18.58834633699114
C           13.75000941208921       -3.52122756630475       19.16107135031948
C           14.67094197748117       -2.30984273636758       19.04850391803429
O           12.03522162405426       15.90408105788790       22.05169134488498
C           10.72937284899609       20.16414148902781       24.07926013616158
C           10.26973577445039       18.76515114463142       23.68823284507655
C           11.37247620948120       17.99285117857031       22.96983175238383
C           10.93591203535610       16.56984037908541       22.63869959272919
O           14.13121418034662       14.71178068619679       20.73795824756075
C           18.37282412588248       16.10224188393143       22.80391143458213
C           16.85227135787811       16.14071695708716       22.89558184991540
C           16.19827119613225       15.41757392868343       21.72166172897585
C           14.67737136543269       15.42472590053806       21.84201512654387
O           13.71739026345747       12.08971986745390       19.63818131665408
C           18.08603943245825       10.09227973862383       18.71049774187973
C           17.34304000683430       11.20515250486274       19.44040216453388
C           15.84713379633233       11.17486496554154       19.14045643799421
C           15.10445646525472       12.31826478647614       19.82745083259827
H           -0.31237649586423        1.16235799807306       20.70051486726490
H            0.79100446581274       -0.48360157880190       20.53203822163869
H           -5.24882154235240       -1.07635761323193       19.54429616868578
H           -2.06548379181692       -4.93077488462634       19.39188659755376
H            5.83824553069770        1.90940259250115       21.00773722155781
H            2.64170886647506        5.68406128296414       21.78962347409269
H            2.14722740637711       -5.27628069150163       19.93933815526642
H            5.60338719909416       -1.70938094432313       20.51218669709695
H           -5.10983464597787        2.66064611495276       20.71257719328976
H           -1.42463529245601        5.86919207306717       21.78342258000923
H            3.95328028705981       -6.94898698359897       19.81740985039222
H            7.35147120137707       -3.37183255773585       20.13206618352944
H            7.68705613222012        3.44504096397804       21.31225952037861
H            4.58354090531114        7.19283419443402       22.14530868701815
H           -3.06465741017218        7.63917749397343       22.02820436452891
H           -6.74555245083839        4.50977182729436       20.98450616821773
H           -7.04314220089427       -2.56171679813611       18.80808532623726
H           -3.93880726059192       -6.41170854063561       18.73607086008927
H           -4.23259738017694        8.99226074986738       23.89724582689776
H           -3.35566905567913        9.76170602805222       22.54671494548554
H           -5.74037175166148       11.20550327161436       23.71574753263517
H           -4.20669740418653       11.21013220993243       24.61130446714001
H           -4.61931386199634       12.35678662240573       21.93236723680982
H           -4.24410437774741       14.29022235457683       21.28822523989513
H           -0.35819758179390       13.12040247199050       22.59043644323392
H           -8.86810535358707        6.34365190273530       23.54751135208695
H           -7.15089327923117        6.80155796041124       23.72098342133712
H           -8.40823013595920        8.46318638559935       24.90845625091120
H           -7.88715945457227        9.22664113797399       23.39143417370478
H          -10.09506799551750        9.19373030666673       22.63415445522579
H          -13.17707649596814        6.93836238751877       24.70142572991230
H          -11.68861607215069       10.46954653682797       22.83845554213085
H           -9.12088563305148       -3.10571118101672       19.13317182929884
H           -9.38895542725763       -2.88280351743641       17.37933432634449
H          -11.16434015826981       -4.74504395755504       17.56653248546667
H          -10.97864969794604       -4.61944312282051       19.33416890348864
H          -12.22336220811600       -2.63424013991600       17.56158425566416
H          -14.59863195482726       -2.57428095737716       18.34481432033770
H          -12.10332498419795        0.17481379933539       20.45135811907875
H           -7.63125822445272       -6.94582321863846       19.94641344466126
H           -8.63917792960107       -7.88985046604300       18.83387902172522
H           -6.17916766102795       -9.33398386998644       19.58472796788110
H           -7.14696511169724       -8.93451508008046       21.01020479113586
H           -8.37580064225218      -10.30957904287641       18.71312365018438
H           -8.45390116614317      -13.62621524526423       21.26080215524614
H          -10.60233411975517      -10.76136712019904       18.94636018347456
H            9.30106375794647       -4.28134057547722       21.35734249275891
H            8.82991895987845       -5.90196327139873       21.96174378675007
H           11.48215348866416       -5.11264077395623       20.66535944653349
H           11.21420138284191       -5.72124735707127       22.32688659130900
H           10.75006321805194       -7.28371228055489       19.87887982427343
H            8.95968792789463       -9.95868519850734       22.19494480209458
H           12.18966902423710       -9.20811252777153       19.50871933854189
H            4.61047690630460       -8.98808694820817       20.37376923346575
H            4.74692521227150       -8.97751988595579       18.58980503032416
H            6.60232617269494      -10.75430176551204       18.88809906347592
H            6.11466248197152      -10.84010259748389       20.58934135626690
H            4.83886728118838      -12.09614111576250       18.35111205712527
H            0.93817401792409      -11.37669760645304       19.79166816506737
H            4.01868260091063      -14.20061988632404       18.93431582952204
H            9.83843314846434        3.62348473684399       22.20327543864197
H            9.70660757981692        4.05462822791377       20.47217842964072
H           11.72741460778298        5.53120973236635       20.72289101914500
H           11.94395714713154        4.94268911746988       22.37836133019614
H           11.96359409877166        3.03168724375008       20.11941598464883
H           12.85859117109370        0.66916010285161       20.70490381797971
H           15.92163019665631        3.60260090436887       20.25960235563359
H            9.20415017411411        8.72111006968190       21.29370778976399
H            7.95279862686890        8.05912551989662       20.21947319293518
H            7.15148548871923       10.21475192702411       19.75353155471343
H            7.15513986842131       10.63194534012846       21.48253196238795
H            9.53679957248731       10.85953035228061       19.76903823574210
H           11.55123021771034       11.07694351194561       20.13865666957355
H            9.85298481241500       14.32035992976441       22.32427896738585
H            6.47342226447700       13.34088585718898       21.89230402179969
H            5.82612845597235       13.98971149947672       20.38259111933641
H            5.89830839800159       15.00602165899183       21.81899840411973
H            4.25140893692452       13.46761935653131       22.94813530768739
H            4.12274386357820       12.54934221720304       21.44995698273563
H            3.32862300595281       14.63058217627220       20.28168021981244
H            3.39959662940578       15.49902532942605       21.81816678923555
H            1.69275899890387       14.03895712519583       22.78810393058895
H            1.66115364999905       13.04093141071049       21.30670811439487
H            1.79216455493850       21.92531503490677       20.48377321547422
H            0.97293139519248       21.42219512693242       19.00469578570557
H            0.04681975959933       21.66754519116332       20.48436844733929
H            1.23697575925434       19.74689638103624       21.54921642344156
H            2.16623207826398       19.50252159068132       20.07200440276033
H            0.04697759366940       19.02514335332975       18.83298820960469
H           -0.86836274565044       19.27875564215317       20.31772404066027
H            0.39267897980103       17.40294034719921       21.40080400462060
H            1.23712459580110       17.10932540843816       19.86636410310808
H           -8.19247472143392       17.60766354519704       16.81316615299214
H           -6.98542592029383       18.78662182457958       17.32903764333711
H           -6.58002036209401       17.59190614726081       16.09770336876393
H           -6.83556277777336       15.76832255948413       17.78330521777645
H           -7.24189812059424       16.96537677556462       19.01424794453628
H           -4.99738757795836       18.00868767070759       18.74996171316785
H           -4.58513709894376       16.83110758992832       17.50832125663931
H           -4.80231729588175       14.98586608612976       19.13571668741881
H           -5.29688718690602       16.14626373626707       20.39687212271405
H          -12.58508218994668       16.64412014280133       20.27641174093952
H          -13.71184017253906       15.62565575524708       19.37955039696365
H          -14.13178880839653       16.19307174541922       20.99530928021034
H          -12.27017324715380       14.84274296734620       21.95845324409698
H          -11.84046569500338       14.27799753927019       20.34283286579786
H          -14.06726632797998       13.18246199207598       20.12984600376464
H          -14.51797880593924       13.78710304527237       21.72257270253367
H          -12.58011382439192       12.50735501175792       22.71594836121772
H          -12.27656719670492       11.81118484595823       21.09832499159513
H          -20.60033893236783       13.35955970672078       23.49394353692714