1124
 energy: -1627.982370876749 gnorm: 0.000609387567 xtb: 6.7.1 (edcfbbe)
C           -6.04644756903229       -3.37359252052684       17.35923123621273
C           -4.26592723447552       -1.81198960190136       17.71059821801301
C           -3.33141863401426       -2.86674562625677       17.54777199372108
C           -2.02136021931762       -2.26211110599443       17.68524082479435
N           -2.12713783958453       -0.93105617067438       17.87674041452293
C           -3.44363787336652       -0.61462090900824       17.88516026228594
C           -3.27613939672933        1.69543574538104       18.01385719945016
N           -1.91472793029335        1.80846571309342       18.10595244054707
C           -1.49141454492342        3.10734370333825       18.13459061779063
N           -3.97562230382996        0.59603422567359       17.94597061558937
C            0.81538300744171        2.82718825782170       18.20932113287746
N            0.88859952127287        1.47935124843819       18.14946574626561
C            2.19296950986244        1.13858381374438       18.13023659346691
N           -0.27525419007263        3.57292499510939       18.19095080009003
C            2.03480134441989       -1.14375975942816       17.79362842447592
N            0.68053450521931       -1.28657693164300       17.87199420692739
C            0.27934074133865       -2.57361390144710       17.65268324741210
N           -0.93949208122542       -3.01683970867669       17.57738894480612
N            2.73133628609062       -0.05614016763278       17.94920348639944
C           -5.61173999956188       -2.05671785695696       17.64107899382734
C           -5.08961097235811       -4.41167348545927       17.14978501618505
C           -3.71446749356660       -4.14662421751587       17.27357179399089
C            4.90809566329016        3.77619252251557       18.32975742912011
C            4.39323285670342        2.46577142348027       18.28878314688497
C            3.03849344695654        2.31449432081228       18.22782318367375
C            2.14918992900060        3.42000438000966       18.25481906372448
C            2.62557026108768        4.70145895559348       18.28919425786388
C            4.02519633800727        4.89487713199116       18.30154396406812
C            2.98408747801055       -5.12835142009428       16.88174064921948
C            1.67979706936092       -4.68568364259390       17.17548599035444
C            1.47722540762283       -3.35274616667227       17.43163371297956
C            2.57501515914311       -2.44440005597598       17.48282203538492
C            3.85171597311789       -2.85112012673599       17.18922898684156
C            4.06519542467631       -4.19536542479496       16.84220276043956
C           -5.24181251965500        4.93833598107173       17.68369003581325
C           -5.06629972624212        3.54659446994410       17.79589402929647
C           -3.79773134600185        3.04372474510149       17.96316752659440
C           -2.67817590432707        3.92438962610041       18.04522861911401
C           -2.83266761717577        5.28563973614966       17.99061008093294
C           -4.12042156036933        5.81748300610326       17.79563294247183
C            3.24368525607828       -6.47482025665873       16.54535546896544
C            5.31928060668285       -4.64330956971827       16.37743207811626
C            6.29688919091468        4.00053336596683       18.35756588135822
C            4.59917610873772        6.17876196920618       18.24713548758108
C           -4.31302997662139        7.20574912612593       17.63410615475464
C           -6.49767328039140        5.50625217634577       17.36435014674613
C           -7.41694798414256       -3.68840007069245       17.22817099009081
C           -5.54104048396163       -5.69213394445767       16.78116176001369
C           -5.54142653873397        7.72494113567330       17.32185587647628
S           -5.84838408042664        9.42434606557419       16.97404373749623
C           -4.56368482002245       10.38179878118240       17.86031421395861
C           -5.25903642232701       11.48397884107342       18.66661967881510
N           -4.39559051585330       12.61187706014207       18.93699617268339
C           -3.34705577348682       12.58870797275726       19.78909192996974
C           -2.66243771041829       13.89966335556700       19.94309377994851
O           -2.99325198570491       11.58301256413761       20.38475077177434
C           -3.39909497868822       15.07319203832718       20.07603897923640
C           -2.74209044688119       16.27117258677284       20.29613269156511
C           -1.33014095958452       16.32405812438477       20.31716166108147
C           -0.59781551641194       15.13881850983215       20.15891983524706
C           -1.27812863697024       13.93442240013037       20.00571896605548
C           -6.64430214734723        6.84783329531730       17.16118146234577
S           -8.16713939717277        7.48230119235924       16.46926126416272
C           -9.20069345983641        7.86887799024505       17.92438352657087
C           -8.67084817587647        9.07978220494331       18.67990649500799
N           -9.62075215220777        9.60166113275616       19.64285623868708
C          -10.18233740041273        8.92342805621503       20.65957881497856
C          -11.05052594958681        9.76598020517099       21.52855532274220
O          -10.05079302784846        7.71998019388039       20.84091201652344
C          -12.23985517883563        9.23646461638364       21.98255086557053
C          -13.13396216321766        9.99339595626962       22.74491008434701
C          -12.79670472071828       11.31261863969728       23.07541325498246
C          -11.56374283672168       11.83803119995835       22.63029571865973
C          -10.69839648323422       11.07172764405837       21.86511624208930
C           -7.82970952862154       -4.94006082031660       16.84326417239818
S           -9.50148566970341       -5.40197311440859       16.55680038005145
C          -10.53114428617121       -3.94237871756868       16.92232377324817
C          -11.97507047685427       -4.43684165133711       16.81162818996015
N          -12.92339699555720       -3.50772756644602       17.36149451682764
C          -13.53458121143728       -3.71399727499610       18.55356259512551
C          -14.47291676403704       -2.63652914385323       18.96218955376750
O          -13.36658504555760       -4.73356643901626       19.20093367036177
C          -15.59439556498548       -2.98099167173375       19.69088305158666
C          -16.51392540343736       -2.01936579974834       20.10378369773363
C          -16.31129553824977       -0.67191128812524       19.76274443366671
C          -15.16468860187359       -0.32889522884920       19.01541541066244
C          -14.25296969671886       -1.30102484817190       18.63813916048624
C           -6.86902110390472       -5.95636487101794       16.60577979770204
S           -7.30636587637354       -7.52887405075280       15.90952138135656
C           -8.43473391536906       -8.26354112598703       17.14823115513132
C           -8.12256210991732       -9.74287820635548       17.30078653535817
N           -9.14968533477118      -10.36046583035915       18.10525205719622
C           -8.93787316952932      -11.33220490448103       19.01316268275911
C          -10.20566907724068      -11.80122545153937       19.64204759423141
O           -7.83215835803340      -11.79047801751323       19.24900936415652
C          -10.51946285975395      -13.14230787352565       19.61870782809114
C          -11.75949490033085      -13.60123560116883       20.07359699243493
C          -12.68202480941092      -12.68382185708971       20.59182264354650
C          -12.34062653753112      -11.31367472585788       20.63138207864558
C          -11.11472754131730      -10.87983197778480       20.15587553812690
C            5.52191246725333       -5.93410920852477       15.97236092241821
S            7.03016931976927       -6.29061872669861       15.10379682981681
C            7.82431034042652       -7.61805254224983       16.07879105179287
C            8.33376481941088       -8.74497676001103       15.18898229724628
N            9.04640759014565       -9.73293962447913       15.97166511072393
C           10.26464379842771       -9.46628210442508       16.48314303007103
C           10.93012572226384      -10.53373348430935       17.27697507456544
O           10.82651166415572       -8.39884498274367       16.26313310592218
C           10.31198188384831      -11.68394356114943       17.72828764425604
C           11.02596136531604      -12.66040464550432       18.42535206417800
C           12.38422882694712      -12.46243423024486       18.71093781724176
C           12.99559252860151      -11.26022063022372       18.29840860295693
C           12.27820114833922      -10.33216446449509       17.56744919127982
C            4.47431126183347       -6.88278614486790       16.10134070712690
S            4.79757740206949       -8.53113443499182       15.56089360493093
C            3.62621654595846       -9.56599988472598       16.50482455456638
C            4.34721809603541      -10.86156269481290       16.88116604947558
N            3.42857100135118      -11.86288245950817       17.37349958153178
C            2.69397159428259      -11.72606912934146       18.50268188575868
C            1.87466794018211      -12.93234854854746       18.80942526052701
O            2.71102663093075      -10.71117024242876       19.17767143479055
C            0.53089104133461      -12.82734081204194       19.10825192342669
C           -0.23974336484268      -13.96157184204929       19.37418950614562
C            0.37891616422598      -15.22204909311137       19.41109787040771
C            1.74606291194196      -15.31954091563467       19.07911891498379
C            2.47836910836191      -14.18556007385932       18.77048655494180
C            6.82940822794203        5.25908363973131       18.26485111029941
S            8.56618785713782        5.54754298923677       18.16076975239034
C            9.35638820776432        3.91520627638462       18.38544946500366
C           10.85754189457411        4.16566118464189       18.24478069018951
N           11.67890462825477        3.07710522515892       18.71742381186885
C           12.35705940217555        3.18688724394239       19.88375153318325
C           13.38675133033511        2.15884897866202       20.16437933351794
O           12.16344074704064        4.12915183217351       20.63844415906777
C           13.32298014348408        0.85254042066051       19.72380654789139
C           14.36267744352698       -0.04221948769527       19.98849753292738
C           15.48249484785639        0.38710234364509       20.71868103043203
C           15.52835363055107        1.71784320912038       21.18372161992720
C           14.48938795846433        2.58593897574573       20.89889243938521
C            5.95743002215355        6.37446253941512       18.19102969192685
S            6.46813864123772        8.02474481038397       17.79362139614214
C            7.90389941830592        8.46209030605212       18.84487310467609
C            7.85722279552121        9.97033357431405       19.04470449549897
N            8.98482136189548       10.44463664527281       19.80621835596994
C            8.84256981118699       11.20632898130661       20.90770108010626
C           10.09070815939624       11.73090044342780       21.51066415183217
O            7.73754475685390       11.51632913026953       21.33754752687062
C           11.32686335342243       11.12128353827198       21.40630090905547
C           12.46607153396752       11.72345580894526       21.93651369343116
C           12.37562853994558       12.97339423681204       22.57383064234906
C           11.10439352357330       13.57197518662552       22.70365336072069
C            9.98716183437119       12.94399980601900       22.18295260564545
O            0.76562146694238       15.23271167150003       20.15840398579121
C            5.38339536726947       13.79706584134408       20.76372602360443
C            3.95606851262917       13.32691591331396       20.51211280426962
C            3.00382548756283       14.50511156983294       20.33211613147615
C            1.55468452722699       14.05896136031280       20.16297098944316
O           -0.84139113504051       17.58232662836061       20.46576913125325
C            2.16286340326363       21.22901410893594       21.70313063767551
C            2.02268190022808       19.72097928814561       21.53634312066993
C            0.64230672992326       19.33897517416198       21.01044668263680
C            0.49642513667412       17.82821176921258       20.85690829307689
O           -3.34368866558333       17.46659296768993       20.50826792946838
C           -6.96163692686192       20.52132707409291       21.68767607693315
C           -6.61640959985030       19.14935075352664       21.12310272085157
C           -5.10999812152237       18.91736116630915       21.10699948485141
C           -4.75268040626226       17.54665301537898       20.54246875428612
O          -11.29951871769322       13.13255285377516       22.96716200789749
C          -10.11689732475296       17.66166868082444       21.57613177201146
C           -9.79341272925981       16.17972574964054       21.42812547869077
C          -10.55873676837419       15.32935848880389       22.43899682756136
C          -10.32776869687402       13.83775815946414       22.21162432102637
O          -13.68590485454289       12.11475052193585       23.75588467846395
C          -15.27511959159667       14.57371456318646       27.68744290383445
C          -14.06854971943545       13.94905029821623       26.99745350357724
C          -14.45949520781357       13.26616987924348       25.68994163348587
C          -13.26311886789994       12.59502021188173       25.02656793819846
O          -14.27684448128087        9.33677668438434       23.03021961392465
C          -18.76346904251502        8.38759378062482       24.71493203815828
C          -17.62153029737815        9.39610481134377       24.68845532032033
C          -16.45403016051930        8.90202596183295       23.83955076610297
C          -15.30288446211156        9.90307176009471       23.83037060632794
O          -15.03545922104131        0.98819705572856       18.66505509254104
C          -13.01300713529601        4.91855772959543       16.57098146766753
C          -12.92872225821056        3.40778645199324       16.75051938259900
C          -14.12262042878837        2.86359181409079       17.53107588852023
C          -13.98494778838290        1.36881483452649       17.80326454708940
O          -17.26605002909320        0.24585779520871       20.10914238975282
C          -18.57579954840124        3.96242623247682       23.06314495458494
C          -17.54526405924126        3.43345304937759       22.07319739212637
C          -17.90370686332511        2.03889185150733       21.56562277973540
C          -16.84955395604426        1.51793685871488       20.59279796541925
O          -17.58097083880002       -2.51667238154298       20.77498703321273
C          -20.71320133773585       -2.87031509726681       24.51114547255080
C          -19.87773290577238       -1.92042682900429       23.66149583676640
C          -19.13377830916458       -2.66233175668383       22.55531044341778
C          -18.29828620878234       -1.71421248709127       21.70048212464872
O          -13.30707829587501      -10.47967221733407       21.10705470436379
C          -15.70865350140584       -6.38949068747925       22.16900170035382
C          -14.35743863107225       -6.94481037853917       21.73162303719343
C          -14.44158521228175       -8.45369292643756       21.51882929965540
C          -13.12343400236393       -9.07786029068209       21.07000566790331
O          -13.93366509538037      -13.09963360365892       20.98721887090684
C          -17.01987911131568      -14.41940179771865       24.57852511200499
C          -15.88756237666654      -13.48691395753385       24.16637977487507
C          -15.45982182101786      -13.72240749446126       22.72035736018815
C          -14.31706875464113      -12.79421932242402       22.32393854107452
O          -11.94447964121629      -14.92982324233185       19.89125626046250
C          -13.83545379356589      -19.41504694063994       20.37965446397441
C          -13.91287978088750      -17.95950255682256       20.82465839769041
C          -12.93127079711454      -17.08121091908063       20.05420436666251
C          -13.03808639766104      -15.61790008791178       20.47491429252205
O           14.29578165613574      -11.08411594987940       18.67152163208733
C           18.48254611232390       -8.61121983505404       19.28259400156134
C           17.12117098674728       -8.63246486885880       18.59833979486421
C           16.33646580241691       -9.89356790367214       18.94662868206504
C           14.95491428831713       -9.88727060248340       18.30058749697371
O           13.07771674268797      -13.40794261630857       19.43137488125462
C           16.25828151680786      -17.13964079809575       19.53427013052482
C           16.00934557749831      -15.71478782234048       19.05569489445515
C           14.59794452654186      -15.24758283938586       19.39780513531520
C           14.35364111535345      -13.80988144678392       18.94944750418560
O           10.26434877179918      -13.73014083477303       18.76660428548708
C            8.96426397322727      -18.03717294935718       20.66679675242939
C           10.12280501253715      -17.09369902089604       20.37155294635913
C            9.65990593418286      -15.86165827071434       19.60022573764797
C           10.81470183141121      -14.89971128793890       19.34126283327498
O            2.27205861065099      -16.57832438061252       19.05040702882256
C            5.73600713864443      -20.01471203964064       18.83954560805132
C            5.42306158080165      -18.53796689919045       18.63172984072504
C            3.95794536685883      -18.22993772160698       18.92517829513049
C            3.64380203895674      -16.74673529420472       18.75856541313999
O           -0.37863805459340      -16.32413906362437       19.71941611427371
C           -1.55183291066494      -19.70682545538559       23.07425284958281
C           -0.44233349468431      -19.11847553717199       22.21122020487077
C           -0.95373302394628      -17.97852418787276       21.33642332208859
C            0.17746064619178      -17.35751759930115       20.52173476102868
O           -1.55592942813353      -13.70410357057780       19.57886215536702
C           -6.32668169390250      -14.72493358992780       18.85809068535989
C           -5.00558033039367      -15.15569104230114       19.48327555014176
C           -3.89296082407718      -14.13258142531347       19.25553774902702
C           -2.52904117136574      -14.74069261205836       19.57340542238832
O           16.62286339846361        2.07936179297548       21.91006687848930
C           19.49294408341696        5.24526158617779       24.34336073192884
C           18.21746974242399        5.05277795914514       23.53275461955782
C           18.02594458578646        3.59740845222424       23.11284962183116
C           16.72720430072219        3.42711560712245       22.33364325337726
O           16.47865361983705       -0.51196588078046       21.02294748961854
C           20.92955224025637       -2.44466033175604       20.32961923775497
C           20.11010279288688       -1.16037183899387       20.35538855977883
C           18.63460363265494       -1.44364511321891       20.62107549920679
C           17.81450744692605       -0.15934189310410       20.68709828666267
O           14.15127046438163       -1.27754336195983       19.48280802358074
C           15.21337074781132       -5.46688623905654       17.21048304587258
C           15.75090331854615       -4.36761515214768       18.11877946612877
C           14.67566696555488       -3.33051244317056       18.42821966184562
C           15.20876057223832       -2.20600495169878       19.30833159181663
O           11.04589345835509       14.79247603407525       23.31227947649157
C            8.88352375434298       18.67995060244618       25.36063770544106
C            8.69672582150765       17.44766392718120       24.48416343813201
C            9.99230746438071       16.65434766089965       24.33930442779092
C            9.78404374350091       15.40088276711306       23.49608126345979
O           13.54099714494401       13.57202189223751       22.96529228666795
C           16.54899627446516       15.44227110389270       26.35860224399374
C           15.16531356899221       15.50599091799732       25.72349888059042
C           14.99517356555904       14.45396787528969       24.63093612712145
C           13.56992567788214       14.45038474603024       24.08360458066073
O           13.60309973236193       11.00694557405586       21.71682501151454
C           18.02341799531603        9.11252331948011       22.59094032316803
C           17.10877973537959       10.31156623149335       22.80883113108447
C           15.76725861412800       10.12979910833134       22.10550009237904
C           14.82077133867464       11.29421763000482       22.38223947982657
H           -1.30044812527448        0.99787539067585       18.11301722793890
H            0.04402204290010       -0.51416390029276       18.04884709163071
H           -6.33217451021835       -1.26427573558323       17.77645157455402
H           -2.98704939661670       -4.92854567307291       17.12664717431753
H            5.04803915581876        1.60849277835926       18.29637041734839
H            1.95790434364610        5.54835896458402       18.28974511166176
H            0.85051694937231       -5.37519597813202       17.16592941402881
H            4.66892273242807       -2.14772237867492       17.19310801014664
H           -5.91285277801004        2.88287879058648       17.71252995907770
H           -1.97408528203145        5.93472633788404       18.05805658841453
H            2.42010602666773       -7.17189055643037       16.58727487920840
H            6.12584256889431       -3.93189012573959       16.28689587691563
H            6.93439005166603        3.13237092284505       18.40889703740959
H            3.95220245493298        7.04138660884432       18.19723184160113
H           -3.44705190917769        7.84537735040445       17.71381615764805
H           -7.34827113468972        4.85497811130684       17.22601656015713
H           -8.13952697052756       -2.90382061193301       17.39889015653800
H           -4.82021879389162       -6.47436374620512       16.60142121141283
H           -4.00859475039988        9.71828348656647       18.51575789221199
H           -3.89750970706117       10.81540074570578       17.11365182582185
H           -6.11992985031329       11.85465327285920       18.10791117313013
H           -5.61467123514078       11.06505120530158       19.61196133180021
H           -4.55919516842298       13.46146800262511       18.42297670882244
H           -4.47627170563263       15.03117597313425       20.07410952984360
H           -0.73946864808656       13.00641170175074       19.90185289095981
H          -10.18664223846194        8.07169106751523       17.50609890436251
H           -9.24768514691255        6.99121926247368       18.56212523374395
H           -7.74502525477670        8.80285569178898       19.19190993123073
H           -8.45312292780293        9.87570186534587       17.96727905769631
H           -9.82320905249642       10.58640201356417       19.58840830879007
H          -12.51712822452636        8.22548918050753       21.73816721290869
H           -9.73992451190950       11.47176592664986       21.57336127631549
H          -10.34003521124435       -3.58104348846727       17.93369019021631
H          -10.31541383255184       -3.15993614590125       16.19357200742687
H          -12.22072530077106       -4.64519004150540       15.76509975532535
H          -12.08560495457475       -5.36048941292518       17.38841273179472
H          -13.06749460376003       -2.63647961868358       16.87993837977407
H          -15.77122363682497       -4.00961359179776       19.95823221473125
H          -13.34935602985862       -1.01773878324267       18.12420642611428
H           -8.29006048400939       -7.73418039851326       18.08602895391988
H           -9.45722823900744       -8.12764940258784       16.79310626151277
H           -8.07834490106670      -10.21585691386935       16.31142406310228
H           -7.16481825101807       -9.89093001474126       17.80293086050799
H          -10.10120386520401      -10.09029677390321       17.90905978569348
H           -9.81934712280680      -13.86203652467177       19.22751375178063
H          -10.85054486597573       -9.83443085019111       20.18654828040215
H            8.66785809194246       -7.16610375381930       16.59446185137144
H            7.10727337410812       -7.98299647786746       16.80737508318948
H            7.50669842908747       -9.22882218866965       14.66896281871848
H            9.03008936392069       -8.32876120978398       14.45485482011582
H            8.54753920863318      -10.55092850840376       16.27551324776103
H            9.26546586063216      -11.89098704255550       17.57262511001440
H           12.73766236229912       -9.42470841972892       17.21330342390804
H            3.31815557206469       -9.02940435411426       17.39882806212558
H            2.75786972385106       -9.77833736610900       15.87943734471427
H            4.85112133119630      -11.26845041429279       16.00256382302625
H            5.10254953632365      -10.64230019362750       17.64296158892156
H            3.34062710468078      -12.72186774434070       16.85741886695196
H            0.04372278765701      -11.86635377493031       19.12967132051065
H            3.53094214517341      -14.25898662754642       18.55307600831079
H            9.11620972720107        3.54752827874391       19.38323156917280
H            8.99393396367388        3.22206001201723       17.62644653834587
H           11.09556853711083        4.38171538152606       17.19975632119226
H           11.12131409772549        5.03629749966088       18.85478362205615
H           11.86712451568625        2.30124831039498       18.10447465325739
H           12.47252082632922        0.46421208454378       19.18605145167538
H           14.50259342012048        3.60650685368493       21.24130220023897
H            7.82163780450416        7.93705797424428       19.79217182523944
H            8.81978301826044        8.16970883707533       18.33216770535623
H            7.83375666490278       10.46358296889943       18.06485875451709
H            6.96069055251214       10.24817861033312       19.60269515571401
H            9.90911378572788       10.22663639175117       19.47191416020088
H           11.45434225302726       10.15241751328549       20.95028957243760
H            9.01118287753750       13.39363815351405       22.25320554583030
H            6.05759590708037       12.95254311432570       20.87783112734902
H            5.73316600394968       14.40764993257454       19.93396521612075
H            5.43040133115013       14.39379476896374       21.67233706657895
H            3.61696114902956       12.72711964750902       21.35919352762869
H            3.92834291926491       12.69543812303622       19.62153869787785
H            3.29596558883907       15.09460859246597       19.46142384091144
H            3.05925233764239       15.15798010592704       21.20576707211054
H            1.26203358835636       13.40514651434808       20.99506440114297
H            1.42965952127951       13.50701701514420       19.22158679796486
H            3.15286613504050       21.48236657187809       22.07487337709479
H            2.01451300432969       21.73267145926511       20.75078563714967
H            1.42472244441130       21.60458094855296       22.40759586518078
H            2.19333951637750       19.23179844122126       22.49852306133374
H            2.78572560020877       19.35781202621157       20.84436286500027
H            0.47088509382306       19.80670747138513       20.03974749327354
H           -0.13319523985661       19.69716208594454       21.68870740669668
H            0.70778370635336       17.32739465894144       21.81092195914762
H            1.20038078631162       17.45750082115784       20.10551321967980
H           -8.03994628112963       20.65988759037517       21.73152942667146
H           -6.55489427217888       20.62632540829657       22.69071539862743
H           -6.54008812622625       21.30760163953983       21.06553959836456
H           -7.01281628210132       19.06064900795509       20.10814459569377
H           -7.08497027931951       18.37698841459477       21.73387589708351
H           -4.71997735419475       18.97676811971172       22.12408205570175
H           -4.61555095066226       19.68112723732029       20.50459448178379
H           -5.16005825245565       17.42535203304008       19.52688650207249
H           -5.17261917852213       16.76207951995159       21.18462117137746
H           -9.57962042111067       18.24534521048337       20.83310234553754
H          -11.18290114686461       17.83060030594744       21.44085180827668
H           -9.83785083143371       18.02470169791520       22.56264292711230
H           -8.71975803638494       16.01614078088513       21.54875738458732
H          -10.05874260716737       15.85706696975529       20.41887109224111
H          -11.62931614529726       15.52210995959771       22.34142849422027
H          -10.26610092215900       15.59518783311255       23.45698073419924
H           -9.31200286125971       13.54521137129784       22.50635202680972
H          -10.45850077423240       13.61059535949077       21.14531719244615
H          -14.98049783612583       15.04906210374953       28.62039291734220